
     Program PWSCF v.7.4.1 starts on  7Oct2025 at 11:29:42 

     This program is part of the open-source Quantum ESPRESSO suite
     for quantum simulation of materials; please cite
         "P. Giannozzi et al., J. Phys.:Condens. Matter 21 395502 (2009);
         "P. Giannozzi et al., J. Phys.:Condens. Matter 29 465901 (2017);
         "P. Giannozzi et al., J. Chem. Phys. 152 154105 (2020);
          URL http://www.quantum-espresso.org", 
     in publications or presentations arising from this work. More details at
     http://www.quantum-espresso.org/quote

     Parallel version (MPI), running on     1 processors

     MPI processes distributed on     1 nodes
     13234 MiB available memory on the printing compute node when the environment starts

     Waiting for input...
     Reading input from standard input

     Current dimensions of program PWSCF are:
     Max number of different atomic species (ntypx) = 10
     Max number of k-points (npk) =  40000
     Max angular momentum in pseudopotentials (lmaxx) =  4
     Presently no symmetry can be used with electric field

     Presently stress not available with electric field and gates

     Message from routine iosys:
     BEWARE:  force calculation with tetrahedra (not recommanded)
     file P.pbe-n-kjpaw_psl.1.0.0.UPF: wavefunction(s)  3S 3P renormalized

     IMPORTANT: XC functional enforced from input :
     Exchange-correlation= PBE
                           (   1   4   3   4   0   0   0)
     Any further DFT definition will be discarded
     Please, verify this is what you really want

     Found identity + ( -0.5000  0.0000  0.5000) symmetry
     This is a supercell, fractional translations are disabled
     [opt_tetra]  Optimized tetrahedron method is used.

     Subspace diagonalization in iterative solution of the eigenvalue problem:
     a serial algorithm will be used


     G-vector sticks info
     --------------------
     sticks:   dense  smooth     PW     G-vecs:    dense   smooth      PW
     Sum        1975     991    291               182381    64591   10271

     Using Slab Decomposition



     bravais-lattice index     =            8
     lattice parameter (alat)  =       6.2550  a.u.
     unit-cell volume          =    1027.2770 (a.u.)^3
     number of atoms/cell      =            8
     number of atomic types    =            1
     number of electrons       =        40.00
     number of Kohn-Sham states=           40
     kinetic-energy cutoff     =      60.0000  Ry
     charge density cutoff     =     480.0000  Ry
     scf convergence threshold =      5.0E-09
     mixing beta               =       0.2000
     number of iterations used =            8  plain     mixing
     Exchange-correlation= PBE
                           (   1   4   3   4   0   0   0)
     Hubbard projectors: ortho-atomic
     Hubbard parameters of DFT+U (Dudarev formulation) in eV:
     U(P-3p) =  2.0000

     Internal variables: lda_plus_u =T, lda_plus_u_kind = 0

     celldm(1)=   6.254993  celldm(2)=   1.323262  celldm(3)=   3.172205
     celldm(4)=   0.000000  celldm(5)=   0.000000  celldm(6)=   0.000000

     crystal axes: (cart. coord. in units of alat)
               a(1) = (   1.000000   0.000000   0.000000 )  
               a(2) = (   0.000000   1.323262   0.000000 )  
               a(3) = (   0.000000   0.000000   3.172205 )  

     reciprocal axes: (cart. coord. in units 2 pi/alat)
               b(1) = (  1.000000  0.000000  0.000000 )  
               b(2) = (  0.000000  0.755708  0.000000 )  
               b(3) = (  0.000000  0.000000  0.315238 )  


     PseudoPot. # 1 for P  read from file:
     /home/kravt/QE/qe-7.4.1/pseudo/P.pbe-n-kjpaw_psl.1.0.0.UPF
     MD5 check sum: 06b8cad1975795032ee26009bb7624c7
     Pseudo is Projector augmented-wave + core cor, Zval =  5.0
     Generated using &quot;atomic&quot; code by A. Dal Corso  v.6.3
     Shape of augmentation charge: PSQ
     Using radial grid of 1147 points,  6 beta functions with: 
                l(1) =   0
                l(2) =   0
                l(3) =   1
                l(4) =   1
                l(5) =   2
                l(6) =   2
     Q(r) pseudized with 0 coefficients 


     atomic species   valence    mass     pseudopotential
     P                 5.00    30.97400     P ( 1.00)

     No symmetry found


                                    s                        frac. trans.

      isym =  1     identity                                     

 cryst.   s( 1) = (     1          0          0      )
                  (     0          1          0      )
                  (     0          0          1      )

 cart.    s( 1) = (  1.0000000  0.0000000  0.0000000 )
                  (  0.0000000  1.0000000  0.0000000 )
                  (  0.0000000  0.0000000  1.0000000 )


     point group C_1 (1)    
     there are  1 classes
     the character table:

       E    
A      1.00

     the symmetry operations in each class and the name of the first element:

     E        1
          identity                                               

   Cartesian axes

     site n.     atom                  positions (alat units)
         1        P      tau(   1) = (   0.0000000   0.1190936   0.3108761  )
         2        P      tau(   2) = (   0.0000000   1.2041684   2.8613289  )
         3        P      tau(   3) = (   0.0000000   0.7807246   1.2752264  )
         4        P      tau(   4) = (   0.0000000   0.5425374   1.8969786  )
         5        P      tau(   5) = (   0.5000000   0.1190936   1.8969786  )
         6        P      tau(   6) = (   0.5000000   1.2041684   1.2752264  )
         7        P      tau(   7) = (   0.5000000   0.7807246   2.8613289  )
         8        P      tau(   8) = (   0.5000000   0.5425374   0.3108761  )

     --------------------------------------------
     DFT-D3 Dispersion Correction (3-body terms):
     --------------------------------------------
       Reference C6 values for interpolation: 

         atom   Coordination number   C6
         P          0.000           383.38
         P          0.995           361.25
         P          2.010           351.11
         P          2.986           303.38

       Values used:

         atom   Coordination number  R0_AB[au]  C6      C8
         P          4.017            3.309    303.38  16807.04
         P          4.017            3.309    303.38  16807.04
         P          4.017            3.309    303.38  16807.04
         P          4.017            3.309    303.38  16807.04
         P          4.017            3.309    303.38  16807.04
         P          4.017            3.309    303.38  16807.04
         P          4.017            3.309    303.38  16807.04
         P          4.017            3.309    303.38  16807.04

         Molecular C6 ( Ry / a.u.^6 ) =     19416.16


   Crystallographic axes

     site n.     atom                  positions (cryst. coord.)
         1        P      tau(   1) = (  0.0000000  0.0900000  0.0980000  )
         2        P      tau(   2) = (  0.0000000  0.9100000  0.9020000  )
         3        P      tau(   3) = (  0.0000000  0.5900000  0.4020000  )
         4        P      tau(   4) = (  0.0000000  0.4100000  0.5980000  )
         5        P      tau(   5) = (  0.5000000  0.0900000  0.5980000  )
         6        P      tau(   6) = (  0.5000000  0.9100000  0.4020000  )
         7        P      tau(   7) = (  0.5000000  0.5900000  0.9020000  )
         8        P      tau(   8) = (  0.5000000  0.4100000  0.0980000  )

     number of k points=   148 (tetrahedron method)
                       cart. coord. in units 2pi/alat
        k(    1) = (   0.0000000   0.0000000   0.0000000), wk =   0.0069444
        k(    2) = (   0.0000000   0.0000000  -0.1576191), wk =   0.0069444
        k(    3) = (   0.0000000   0.0629757   0.0000000), wk =   0.0138889
        k(    4) = (   0.0000000   0.0629757  -0.1576191), wk =   0.0138889
        k(    5) = (   0.0000000   0.1259514   0.0000000), wk =   0.0138889
        k(    6) = (   0.0000000   0.1259514  -0.1576191), wk =   0.0138889
        k(    7) = (   0.0000000   0.1889271   0.0000000), wk =   0.0138889
        k(    8) = (   0.0000000   0.1889271  -0.1576191), wk =   0.0138889
        k(    9) = (   0.0000000   0.2519027   0.0000000), wk =   0.0138889
        k(   10) = (   0.0000000   0.2519027  -0.1576191), wk =   0.0138889
        k(   11) = (   0.0000000   0.3148784   0.0000000), wk =   0.0138889
        k(   12) = (   0.0000000   0.3148784  -0.1576191), wk =   0.0138889
        k(   13) = (   0.0000000  -0.3778541   0.0000000), wk =   0.0069444
        k(   14) = (   0.0000000  -0.3778541  -0.1576191), wk =   0.0069444
        k(   15) = (   0.0833333   0.0000000   0.0000000), wk =   0.0138889
        k(   16) = (   0.0833333   0.0000000  -0.1576191), wk =   0.0138889
        k(   17) = (   0.0833333   0.0629757   0.0000000), wk =   0.0138889
        k(   18) = (   0.0833333   0.0629757  -0.1576191), wk =   0.0138889
        k(   19) = (   0.0833333   0.1259514   0.0000000), wk =   0.0138889
        k(   20) = (   0.0833333   0.1259514  -0.1576191), wk =   0.0138889
        k(   21) = (   0.0833333   0.1889271   0.0000000), wk =   0.0138889
        k(   22) = (   0.0833333   0.1889271  -0.1576191), wk =   0.0138889
        k(   23) = (   0.0833333   0.2519027   0.0000000), wk =   0.0138889
        k(   24) = (   0.0833333   0.2519027  -0.1576191), wk =   0.0138889
        k(   25) = (   0.0833333   0.3148784   0.0000000), wk =   0.0138889
        k(   26) = (   0.0833333   0.3148784  -0.1576191), wk =   0.0138889
        k(   27) = (   0.0833333  -0.3778541   0.0000000), wk =   0.0138889
        k(   28) = (   0.0833333  -0.3778541  -0.1576191), wk =   0.0138889
        k(   29) = (   0.0833333  -0.3148784   0.0000000), wk =   0.0138889
        k(   30) = (   0.0833333  -0.3148784  -0.1576191), wk =   0.0138889
        k(   31) = (   0.0833333  -0.2519027   0.0000000), wk =   0.0138889
        k(   32) = (   0.0833333  -0.2519027  -0.1576191), wk =   0.0138889
        k(   33) = (   0.0833333  -0.1889271   0.0000000), wk =   0.0138889
        k(   34) = (   0.0833333  -0.1889271  -0.1576191), wk =   0.0138889
        k(   35) = (   0.0833333  -0.1259514   0.0000000), wk =   0.0138889
        k(   36) = (   0.0833333  -0.1259514  -0.1576191), wk =   0.0138889
        k(   37) = (   0.0833333  -0.0629757   0.0000000), wk =   0.0138889
        k(   38) = (   0.0833333  -0.0629757  -0.1576191), wk =   0.0138889
        k(   39) = (   0.1666667   0.0000000   0.0000000), wk =   0.0138889
        k(   40) = (   0.1666667   0.0000000  -0.1576191), wk =   0.0138889
        k(   41) = (   0.1666667   0.0629757   0.0000000), wk =   0.0138889
        k(   42) = (   0.1666667   0.0629757  -0.1576191), wk =   0.0138889
        k(   43) = (   0.1666667   0.1259514   0.0000000), wk =   0.0138889
        k(   44) = (   0.1666667   0.1259514  -0.1576191), wk =   0.0138889
        k(   45) = (   0.1666667   0.1889271   0.0000000), wk =   0.0138889
        k(   46) = (   0.1666667   0.1889271  -0.1576191), wk =   0.0138889
        k(   47) = (   0.1666667   0.2519027   0.0000000), wk =   0.0138889
        k(   48) = (   0.1666667   0.2519027  -0.1576191), wk =   0.0138889
        k(   49) = (   0.1666667   0.3148784   0.0000000), wk =   0.0138889
        k(   50) = (   0.1666667   0.3148784  -0.1576191), wk =   0.0138889
        k(   51) = (   0.1666667  -0.3778541   0.0000000), wk =   0.0138889
        k(   52) = (   0.1666667  -0.3778541  -0.1576191), wk =   0.0138889
        k(   53) = (   0.1666667  -0.3148784   0.0000000), wk =   0.0138889
        k(   54) = (   0.1666667  -0.3148784  -0.1576191), wk =   0.0138889
        k(   55) = (   0.1666667  -0.2519027   0.0000000), wk =   0.0138889
        k(   56) = (   0.1666667  -0.2519027  -0.1576191), wk =   0.0138889
        k(   57) = (   0.1666667  -0.1889271   0.0000000), wk =   0.0138889
        k(   58) = (   0.1666667  -0.1889271  -0.1576191), wk =   0.0138889
        k(   59) = (   0.1666667  -0.1259514   0.0000000), wk =   0.0138889
        k(   60) = (   0.1666667  -0.1259514  -0.1576191), wk =   0.0138889
        k(   61) = (   0.1666667  -0.0629757   0.0000000), wk =   0.0138889
        k(   62) = (   0.1666667  -0.0629757  -0.1576191), wk =   0.0138889
        k(   63) = (   0.2500000   0.0000000   0.0000000), wk =   0.0138889
        k(   64) = (   0.2500000   0.0000000  -0.1576191), wk =   0.0138889
        k(   65) = (   0.2500000   0.0629757   0.0000000), wk =   0.0138889
        k(   66) = (   0.2500000   0.0629757  -0.1576191), wk =   0.0138889
        k(   67) = (   0.2500000   0.1259514   0.0000000), wk =   0.0138889
        k(   68) = (   0.2500000   0.1259514  -0.1576191), wk =   0.0138889
        k(   69) = (   0.2500000   0.1889271   0.0000000), wk =   0.0138889
        k(   70) = (   0.2500000   0.1889271  -0.1576191), wk =   0.0138889
        k(   71) = (   0.2500000   0.2519027   0.0000000), wk =   0.0138889
        k(   72) = (   0.2500000   0.2519027  -0.1576191), wk =   0.0138889
        k(   73) = (   0.2500000   0.3148784   0.0000000), wk =   0.0138889
        k(   74) = (   0.2500000   0.3148784  -0.1576191), wk =   0.0138889
        k(   75) = (   0.2500000  -0.3778541   0.0000000), wk =   0.0138889
        k(   76) = (   0.2500000  -0.3778541  -0.1576191), wk =   0.0138889
        k(   77) = (   0.2500000  -0.3148784   0.0000000), wk =   0.0138889
        k(   78) = (   0.2500000  -0.3148784  -0.1576191), wk =   0.0138889
        k(   79) = (   0.2500000  -0.2519027   0.0000000), wk =   0.0138889
        k(   80) = (   0.2500000  -0.2519027  -0.1576191), wk =   0.0138889
        k(   81) = (   0.2500000  -0.1889271   0.0000000), wk =   0.0138889
        k(   82) = (   0.2500000  -0.1889271  -0.1576191), wk =   0.0138889
        k(   83) = (   0.2500000  -0.1259514   0.0000000), wk =   0.0138889
        k(   84) = (   0.2500000  -0.1259514  -0.1576191), wk =   0.0138889
        k(   85) = (   0.2500000  -0.0629757   0.0000000), wk =   0.0138889
        k(   86) = (   0.2500000  -0.0629757  -0.1576191), wk =   0.0138889
        k(   87) = (   0.3333333   0.0000000   0.0000000), wk =   0.0138889
        k(   88) = (   0.3333333   0.0000000  -0.1576191), wk =   0.0138889
        k(   89) = (   0.3333333   0.0629757   0.0000000), wk =   0.0138889
        k(   90) = (   0.3333333   0.0629757  -0.1576191), wk =   0.0138889
        k(   91) = (   0.3333333   0.1259514   0.0000000), wk =   0.0138889
        k(   92) = (   0.3333333   0.1259514  -0.1576191), wk =   0.0138889
        k(   93) = (   0.3333333   0.1889271   0.0000000), wk =   0.0138889
        k(   94) = (   0.3333333   0.1889271  -0.1576191), wk =   0.0138889
        k(   95) = (   0.3333333   0.2519027   0.0000000), wk =   0.0138889
        k(   96) = (   0.3333333   0.2519027  -0.1576191), wk =   0.0138889
        k(   97) = (   0.3333333   0.3148784   0.0000000), wk =   0.0138889
        k(   98) = (   0.3333333   0.3148784  -0.1576191), wk =   0.0138889
        k(   99) = (   0.3333333  -0.3778541   0.0000000), wk =   0.0138889
        k(  100) = (   0.3333333  -0.3778541  -0.1576191), wk =   0.0138889
        k(  101) = (   0.3333333  -0.3148784   0.0000000), wk =   0.0138889
        k(  102) = (   0.3333333  -0.3148784  -0.1576191), wk =   0.0138889
        k(  103) = (   0.3333333  -0.2519027   0.0000000), wk =   0.0138889
        k(  104) = (   0.3333333  -0.2519027  -0.1576191), wk =   0.0138889
        k(  105) = (   0.3333333  -0.1889271   0.0000000), wk =   0.0138889
        k(  106) = (   0.3333333  -0.1889271  -0.1576191), wk =   0.0138889
        k(  107) = (   0.3333333  -0.1259514   0.0000000), wk =   0.0138889
        k(  108) = (   0.3333333  -0.1259514  -0.1576191), wk =   0.0138889
        k(  109) = (   0.3333333  -0.0629757   0.0000000), wk =   0.0138889
        k(  110) = (   0.3333333  -0.0629757  -0.1576191), wk =   0.0138889
        k(  111) = (   0.4166667   0.0000000   0.0000000), wk =   0.0138889
        k(  112) = (   0.4166667   0.0000000  -0.1576191), wk =   0.0138889
        k(  113) = (   0.4166667   0.0629757   0.0000000), wk =   0.0138889
        k(  114) = (   0.4166667   0.0629757  -0.1576191), wk =   0.0138889
        k(  115) = (   0.4166667   0.1259514   0.0000000), wk =   0.0138889
        k(  116) = (   0.4166667   0.1259514  -0.1576191), wk =   0.0138889
        k(  117) = (   0.4166667   0.1889271   0.0000000), wk =   0.0138889
        k(  118) = (   0.4166667   0.1889271  -0.1576191), wk =   0.0138889
        k(  119) = (   0.4166667   0.2519027   0.0000000), wk =   0.0138889
        k(  120) = (   0.4166667   0.2519027  -0.1576191), wk =   0.0138889
        k(  121) = (   0.4166667   0.3148784   0.0000000), wk =   0.0138889
        k(  122) = (   0.4166667   0.3148784  -0.1576191), wk =   0.0138889
        k(  123) = (   0.4166667  -0.3778541   0.0000000), wk =   0.0138889
        k(  124) = (   0.4166667  -0.3778541  -0.1576191), wk =   0.0138889
        k(  125) = (   0.4166667  -0.3148784   0.0000000), wk =   0.0138889
        k(  126) = (   0.4166667  -0.3148784  -0.1576191), wk =   0.0138889
        k(  127) = (   0.4166667  -0.2519027   0.0000000), wk =   0.0138889
        k(  128) = (   0.4166667  -0.2519027  -0.1576191), wk =   0.0138889
        k(  129) = (   0.4166667  -0.1889271   0.0000000), wk =   0.0138889
        k(  130) = (   0.4166667  -0.1889271  -0.1576191), wk =   0.0138889
        k(  131) = (   0.4166667  -0.1259514   0.0000000), wk =   0.0138889
        k(  132) = (   0.4166667  -0.1259514  -0.1576191), wk =   0.0138889
        k(  133) = (   0.4166667  -0.0629757   0.0000000), wk =   0.0138889
        k(  134) = (   0.4166667  -0.0629757  -0.1576191), wk =   0.0138889
        k(  135) = (  -0.5000000   0.0000000   0.0000000), wk =   0.0069444
        k(  136) = (  -0.5000000   0.0000000  -0.1576191), wk =   0.0069444
        k(  137) = (  -0.5000000   0.0629757   0.0000000), wk =   0.0138889
        k(  138) = (  -0.5000000   0.0629757  -0.1576191), wk =   0.0138889
        k(  139) = (  -0.5000000   0.1259514   0.0000000), wk =   0.0138889
        k(  140) = (  -0.5000000   0.1259514  -0.1576191), wk =   0.0138889
        k(  141) = (  -0.5000000   0.1889271   0.0000000), wk =   0.0138889
        k(  142) = (  -0.5000000   0.1889271  -0.1576191), wk =   0.0138889
        k(  143) = (  -0.5000000   0.2519027   0.0000000), wk =   0.0138889
        k(  144) = (  -0.5000000   0.2519027  -0.1576191), wk =   0.0138889
        k(  145) = (  -0.5000000   0.3148784   0.0000000), wk =   0.0138889
        k(  146) = (  -0.5000000   0.3148784  -0.1576191), wk =   0.0138889
        k(  147) = (  -0.5000000  -0.3778541   0.0000000), wk =   0.0069444
        k(  148) = (  -0.5000000  -0.3778541  -0.1576191), wk =   0.0069444

                       cryst. coord.
        k(    1) = (   0.0000000   0.0000000   0.0000000), wk =   0.0069444
        k(    2) = (   0.0000000   0.0000000  -0.5000000), wk =   0.0069444
        k(    3) = (   0.0000000   0.0833333   0.0000000), wk =   0.0138889
        k(    4) = (   0.0000000   0.0833333  -0.5000000), wk =   0.0138889
        k(    5) = (   0.0000000   0.1666667   0.0000000), wk =   0.0138889
        k(    6) = (   0.0000000   0.1666667  -0.5000000), wk =   0.0138889
        k(    7) = (   0.0000000   0.2500000   0.0000000), wk =   0.0138889
        k(    8) = (   0.0000000   0.2500000  -0.5000000), wk =   0.0138889
        k(    9) = (   0.0000000   0.3333333   0.0000000), wk =   0.0138889
        k(   10) = (   0.0000000   0.3333333  -0.5000000), wk =   0.0138889
        k(   11) = (   0.0000000   0.4166667   0.0000000), wk =   0.0138889
        k(   12) = (   0.0000000   0.4166667  -0.5000000), wk =   0.0138889
        k(   13) = (   0.0000000  -0.5000000   0.0000000), wk =   0.0069444
        k(   14) = (   0.0000000  -0.5000000  -0.5000000), wk =   0.0069444
        k(   15) = (   0.0833333   0.0000000   0.0000000), wk =   0.0138889
        k(   16) = (   0.0833333   0.0000000  -0.5000000), wk =   0.0138889
        k(   17) = (   0.0833333   0.0833333   0.0000000), wk =   0.0138889
        k(   18) = (   0.0833333   0.0833333  -0.5000000), wk =   0.0138889
        k(   19) = (   0.0833333   0.1666667   0.0000000), wk =   0.0138889
        k(   20) = (   0.0833333   0.1666667  -0.5000000), wk =   0.0138889
        k(   21) = (   0.0833333   0.2500000   0.0000000), wk =   0.0138889
        k(   22) = (   0.0833333   0.2500000  -0.5000000), wk =   0.0138889
        k(   23) = (   0.0833333   0.3333333   0.0000000), wk =   0.0138889
        k(   24) = (   0.0833333   0.3333333  -0.5000000), wk =   0.0138889
        k(   25) = (   0.0833333   0.4166667   0.0000000), wk =   0.0138889
        k(   26) = (   0.0833333   0.4166667  -0.5000000), wk =   0.0138889
        k(   27) = (   0.0833333  -0.5000000   0.0000000), wk =   0.0138889
        k(   28) = (   0.0833333  -0.5000000  -0.5000000), wk =   0.0138889
        k(   29) = (   0.0833333  -0.4166667   0.0000000), wk =   0.0138889
        k(   30) = (   0.0833333  -0.4166667  -0.5000000), wk =   0.0138889
        k(   31) = (   0.0833333  -0.3333333   0.0000000), wk =   0.0138889
        k(   32) = (   0.0833333  -0.3333333  -0.5000000), wk =   0.0138889
        k(   33) = (   0.0833333  -0.2500000   0.0000000), wk =   0.0138889
        k(   34) = (   0.0833333  -0.2500000  -0.5000000), wk =   0.0138889
        k(   35) = (   0.0833333  -0.1666667   0.0000000), wk =   0.0138889
        k(   36) = (   0.0833333  -0.1666667  -0.5000000), wk =   0.0138889
        k(   37) = (   0.0833333  -0.0833333   0.0000000), wk =   0.0138889
        k(   38) = (   0.0833333  -0.0833333  -0.5000000), wk =   0.0138889
        k(   39) = (   0.1666667   0.0000000   0.0000000), wk =   0.0138889
        k(   40) = (   0.1666667   0.0000000  -0.5000000), wk =   0.0138889
        k(   41) = (   0.1666667   0.0833333   0.0000000), wk =   0.0138889
        k(   42) = (   0.1666667   0.0833333  -0.5000000), wk =   0.0138889
        k(   43) = (   0.1666667   0.1666667   0.0000000), wk =   0.0138889
        k(   44) = (   0.1666667   0.1666667  -0.5000000), wk =   0.0138889
        k(   45) = (   0.1666667   0.2500000   0.0000000), wk =   0.0138889
        k(   46) = (   0.1666667   0.2500000  -0.5000000), wk =   0.0138889
        k(   47) = (   0.1666667   0.3333333   0.0000000), wk =   0.0138889
        k(   48) = (   0.1666667   0.3333333  -0.5000000), wk =   0.0138889
        k(   49) = (   0.1666667   0.4166667   0.0000000), wk =   0.0138889
        k(   50) = (   0.1666667   0.4166667  -0.5000000), wk =   0.0138889
        k(   51) = (   0.1666667  -0.5000000   0.0000000), wk =   0.0138889
        k(   52) = (   0.1666667  -0.5000000  -0.5000000), wk =   0.0138889
        k(   53) = (   0.1666667  -0.4166667   0.0000000), wk =   0.0138889
        k(   54) = (   0.1666667  -0.4166667  -0.5000000), wk =   0.0138889
        k(   55) = (   0.1666667  -0.3333333   0.0000000), wk =   0.0138889
        k(   56) = (   0.1666667  -0.3333333  -0.5000000), wk =   0.0138889
        k(   57) = (   0.1666667  -0.2500000   0.0000000), wk =   0.0138889
        k(   58) = (   0.1666667  -0.2500000  -0.5000000), wk =   0.0138889
        k(   59) = (   0.1666667  -0.1666667   0.0000000), wk =   0.0138889
        k(   60) = (   0.1666667  -0.1666667  -0.5000000), wk =   0.0138889
        k(   61) = (   0.1666667  -0.0833333   0.0000000), wk =   0.0138889
        k(   62) = (   0.1666667  -0.0833333  -0.5000000), wk =   0.0138889
        k(   63) = (   0.2500000   0.0000000   0.0000000), wk =   0.0138889
        k(   64) = (   0.2500000   0.0000000  -0.5000000), wk =   0.0138889
        k(   65) = (   0.2500000   0.0833333   0.0000000), wk =   0.0138889
        k(   66) = (   0.2500000   0.0833333  -0.5000000), wk =   0.0138889
        k(   67) = (   0.2500000   0.1666667   0.0000000), wk =   0.0138889
        k(   68) = (   0.2500000   0.1666667  -0.5000000), wk =   0.0138889
        k(   69) = (   0.2500000   0.2500000   0.0000000), wk =   0.0138889
        k(   70) = (   0.2500000   0.2500000  -0.5000000), wk =   0.0138889
        k(   71) = (   0.2500000   0.3333333   0.0000000), wk =   0.0138889
        k(   72) = (   0.2500000   0.3333333  -0.5000000), wk =   0.0138889
        k(   73) = (   0.2500000   0.4166667   0.0000000), wk =   0.0138889
        k(   74) = (   0.2500000   0.4166667  -0.5000000), wk =   0.0138889
        k(   75) = (   0.2500000  -0.5000000   0.0000000), wk =   0.0138889
        k(   76) = (   0.2500000  -0.5000000  -0.5000000), wk =   0.0138889
        k(   77) = (   0.2500000  -0.4166667   0.0000000), wk =   0.0138889
        k(   78) = (   0.2500000  -0.4166667  -0.5000000), wk =   0.0138889
        k(   79) = (   0.2500000  -0.3333333   0.0000000), wk =   0.0138889
        k(   80) = (   0.2500000  -0.3333333  -0.5000000), wk =   0.0138889
        k(   81) = (   0.2500000  -0.2500000   0.0000000), wk =   0.0138889
        k(   82) = (   0.2500000  -0.2500000  -0.5000000), wk =   0.0138889
        k(   83) = (   0.2500000  -0.1666667   0.0000000), wk =   0.0138889
        k(   84) = (   0.2500000  -0.1666667  -0.5000000), wk =   0.0138889
        k(   85) = (   0.2500000  -0.0833333   0.0000000), wk =   0.0138889
        k(   86) = (   0.2500000  -0.0833333  -0.5000000), wk =   0.0138889
        k(   87) = (   0.3333333   0.0000000   0.0000000), wk =   0.0138889
        k(   88) = (   0.3333333   0.0000000  -0.5000000), wk =   0.0138889
        k(   89) = (   0.3333333   0.0833333   0.0000000), wk =   0.0138889
        k(   90) = (   0.3333333   0.0833333  -0.5000000), wk =   0.0138889
        k(   91) = (   0.3333333   0.1666667   0.0000000), wk =   0.0138889
        k(   92) = (   0.3333333   0.1666667  -0.5000000), wk =   0.0138889
        k(   93) = (   0.3333333   0.2500000   0.0000000), wk =   0.0138889
        k(   94) = (   0.3333333   0.2500000  -0.5000000), wk =   0.0138889
        k(   95) = (   0.3333333   0.3333333   0.0000000), wk =   0.0138889
        k(   96) = (   0.3333333   0.3333333  -0.5000000), wk =   0.0138889
        k(   97) = (   0.3333333   0.4166667   0.0000000), wk =   0.0138889
        k(   98) = (   0.3333333   0.4166667  -0.5000000), wk =   0.0138889
        k(   99) = (   0.3333333  -0.5000000   0.0000000), wk =   0.0138889
        k(  100) = (   0.3333333  -0.5000000  -0.5000000), wk =   0.0138889
        k(  101) = (   0.3333333  -0.4166667   0.0000000), wk =   0.0138889
        k(  102) = (   0.3333333  -0.4166667  -0.5000000), wk =   0.0138889
        k(  103) = (   0.3333333  -0.3333333   0.0000000), wk =   0.0138889
        k(  104) = (   0.3333333  -0.3333333  -0.5000000), wk =   0.0138889
        k(  105) = (   0.3333333  -0.2500000   0.0000000), wk =   0.0138889
        k(  106) = (   0.3333333  -0.2500000  -0.5000000), wk =   0.0138889
        k(  107) = (   0.3333333  -0.1666667   0.0000000), wk =   0.0138889
        k(  108) = (   0.3333333  -0.1666667  -0.5000000), wk =   0.0138889
        k(  109) = (   0.3333333  -0.0833333   0.0000000), wk =   0.0138889
        k(  110) = (   0.3333333  -0.0833333  -0.5000000), wk =   0.0138889
        k(  111) = (   0.4166667   0.0000000   0.0000000), wk =   0.0138889
        k(  112) = (   0.4166667   0.0000000  -0.5000000), wk =   0.0138889
        k(  113) = (   0.4166667   0.0833333   0.0000000), wk =   0.0138889
        k(  114) = (   0.4166667   0.0833333  -0.5000000), wk =   0.0138889
        k(  115) = (   0.4166667   0.1666667   0.0000000), wk =   0.0138889
        k(  116) = (   0.4166667   0.1666667  -0.5000000), wk =   0.0138889
        k(  117) = (   0.4166667   0.2500000   0.0000000), wk =   0.0138889
        k(  118) = (   0.4166667   0.2500000  -0.5000000), wk =   0.0138889
        k(  119) = (   0.4166667   0.3333333   0.0000000), wk =   0.0138889
        k(  120) = (   0.4166667   0.3333333  -0.5000000), wk =   0.0138889
        k(  121) = (   0.4166667   0.4166667   0.0000000), wk =   0.0138889
        k(  122) = (   0.4166667   0.4166667  -0.5000000), wk =   0.0138889
        k(  123) = (   0.4166667  -0.5000000   0.0000000), wk =   0.0138889
        k(  124) = (   0.4166667  -0.5000000  -0.5000000), wk =   0.0138889
        k(  125) = (   0.4166667  -0.4166667   0.0000000), wk =   0.0138889
        k(  126) = (   0.4166667  -0.4166667  -0.5000000), wk =   0.0138889
        k(  127) = (   0.4166667  -0.3333333   0.0000000), wk =   0.0138889
        k(  128) = (   0.4166667  -0.3333333  -0.5000000), wk =   0.0138889
        k(  129) = (   0.4166667  -0.2500000   0.0000000), wk =   0.0138889
        k(  130) = (   0.4166667  -0.2500000  -0.5000000), wk =   0.0138889
        k(  131) = (   0.4166667  -0.1666667   0.0000000), wk =   0.0138889
        k(  132) = (   0.4166667  -0.1666667  -0.5000000), wk =   0.0138889
        k(  133) = (   0.4166667  -0.0833333   0.0000000), wk =   0.0138889
        k(  134) = (   0.4166667  -0.0833333  -0.5000000), wk =   0.0138889
        k(  135) = (  -0.5000000   0.0000000   0.0000000), wk =   0.0069444
        k(  136) = (  -0.5000000   0.0000000  -0.5000000), wk =   0.0069444
        k(  137) = (  -0.5000000   0.0833333   0.0000000), wk =   0.0138889
        k(  138) = (  -0.5000000   0.0833333  -0.5000000), wk =   0.0138889
        k(  139) = (  -0.5000000   0.1666667   0.0000000), wk =   0.0138889
        k(  140) = (  -0.5000000   0.1666667  -0.5000000), wk =   0.0138889
        k(  141) = (  -0.5000000   0.2500000   0.0000000), wk =   0.0138889
        k(  142) = (  -0.5000000   0.2500000  -0.5000000), wk =   0.0138889
        k(  143) = (  -0.5000000   0.3333333   0.0000000), wk =   0.0138889
        k(  144) = (  -0.5000000   0.3333333  -0.5000000), wk =   0.0138889
        k(  145) = (  -0.5000000   0.4166667   0.0000000), wk =   0.0138889
        k(  146) = (  -0.5000000   0.4166667  -0.5000000), wk =   0.0138889
        k(  147) = (  -0.5000000  -0.5000000   0.0000000), wk =   0.0069444
        k(  148) = (  -0.5000000  -0.5000000  -0.5000000), wk =   0.0069444

     Dense  grid:   182381 G-vectors     FFT dimensions: (  45,  60, 144)

     Smooth grid:    64591 G-vectors     FFT dimensions: (  32,  45, 100)

     Dynamical RAM for                 wfc:       4.92 MB

     Dynamical RAM for     wfc (w. buffer):     733.18 MB

     Dynamical RAM for             U proj.:       2.95 MB

     Dynamical RAM for  U proj. (w. buff.):     439.91 MB

     Dynamical RAM for           str. fact:       2.78 MB

     Dynamical RAM for           local pot:       0.00 MB

     Dynamical RAM for          nlocal pot:      17.71 MB

     Dynamical RAM for                qrad:       1.76 MB

     Dynamical RAM for          rho,v,vnew:      17.25 MB

     Dynamical RAM for               rhoin:       5.75 MB

     Dynamical RAM for            rho*nmix:      44.53 MB

     Dynamical RAM for           G-vectors:      10.93 MB

     Dynamical RAM for          h,s,v(r/c):       0.29 MB

     Dynamical RAM for          <psi|beta>:       0.09 MB

     Dynamical RAM for                 psi:       9.84 MB

     Dynamical RAM for                hpsi:       9.84 MB

     Dynamical RAM for                spsi:       9.84 MB

     Dynamical RAM for      wfcinit/wfcrot:       9.88 MB

     Dynamical RAM for           addusdens:     539.89 MB

     Dynamical RAM for          addusforce:     580.27 MB

     Estimated static dynamical RAM per process >       1.22 GB

     Estimated max dynamical RAM per process >       1.83 GB

     Initial potential from superposition of free atoms

     starting charge      39.9987, renormalised to      40.0000

     HUBBARD ENERGY =    0.8820  (Ry)

     Adding external electric field

     Computed dipole along edir(3) : 
        Elec. dipole         -0.1587 Ry au,         -0.4034 Debye
        Ion. dipole           0.6311 Ry au,          1.6040 Debye
        Dipole               64.5642 Ry au,        164.1058 Debye
        Dipole field          0.7898 Ry au, 

        Potential amp.      -29.7753 Ry
        Total length         18.8500 bohr


     STARTING HUBBARD OCCUPATIONS:

     =================== HUBBARD OCCUPATIONS ===================
     ------------------------ ATOM    1 ------------------------
     Tr[ns(  1)] =   3.00000
     eigenvalues:
       0.500  0.500  0.500
     eigenvectors (columns):
       1.000  0.000  0.000
       0.000  1.000  0.000
       0.000  0.000  1.000
     occupation matrix ns (before diag.):
       0.500  0.000  0.000
       0.000  0.500  0.000
       0.000  0.000  0.500
     ------------------------ ATOM    2 ------------------------
     Tr[ns(  2)] =   3.00000
     eigenvalues:
       0.500  0.500  0.500
     eigenvectors (columns):
       1.000  0.000  0.000
       0.000  1.000  0.000
       0.000  0.000  1.000
     occupation matrix ns (before diag.):
       0.500  0.000  0.000
       0.000  0.500  0.000
       0.000  0.000  0.500
     ------------------------ ATOM    3 ------------------------
     Tr[ns(  3)] =   3.00000
     eigenvalues:
       0.500  0.500  0.500
     eigenvectors (columns):
       1.000  0.000  0.000
       0.000  1.000  0.000
       0.000  0.000  1.000
     occupation matrix ns (before diag.):
       0.500  0.000  0.000
       0.000  0.500  0.000
       0.000  0.000  0.500
     ------------------------ ATOM    4 ------------------------
     Tr[ns(  4)] =   3.00000
     eigenvalues:
       0.500  0.500  0.500
     eigenvectors (columns):
       1.000  0.000  0.000
       0.000  1.000  0.000
       0.000  0.000  1.000
     occupation matrix ns (before diag.):
       0.500  0.000  0.000
       0.000  0.500  0.000
       0.000  0.000  0.500
     ------------------------ ATOM    5 ------------------------
     Tr[ns(  5)] =   3.00000
     eigenvalues:
       0.500  0.500  0.500
     eigenvectors (columns):
       1.000  0.000  0.000
       0.000  1.000  0.000
       0.000  0.000  1.000
     occupation matrix ns (before diag.):
       0.500  0.000  0.000
       0.000  0.500  0.000
       0.000  0.000  0.500
     ------------------------ ATOM    6 ------------------------
     Tr[ns(  6)] =   3.00000
     eigenvalues:
       0.500  0.500  0.500
     eigenvectors (columns):
       1.000  0.000  0.000
       0.000  1.000  0.000
       0.000  0.000  1.000
     occupation matrix ns (before diag.):
       0.500  0.000  0.000
       0.000  0.500  0.000
       0.000  0.000  0.500
     ------------------------ ATOM    7 ------------------------
     Tr[ns(  7)] =   3.00000
     eigenvalues:
       0.500  0.500  0.500
     eigenvectors (columns):
       1.000  0.000  0.000
       0.000  1.000  0.000
       0.000  0.000  1.000
     occupation matrix ns (before diag.):
       0.500  0.000  0.000
       0.000  0.500  0.000
       0.000  0.000  0.500
     ------------------------ ATOM    8 ------------------------
     Tr[ns(  8)] =   3.00000
     eigenvalues:
       0.500  0.500  0.500
     eigenvectors (columns):
       1.000  0.000  0.000
       0.000  1.000  0.000
       0.000  0.000  1.000
     occupation matrix ns (before diag.):
       0.500  0.000  0.000
       0.000  0.500  0.000
       0.000  0.000  0.500

     Number of occupied Hubbard levels =   24.0000

     Atomic wfc used for Hubbard projectors are orthogonalized

     Starting wfcs are   32 randomized atomic wfcs +    8 random wfcs
     Checking if some PAW data can be deallocated... 

     total cpu time spent up to now is       25.6 secs

     Self-consistent Calculation

     iteration #  1     ecut=    60.00 Ry     beta= 0.20
     Davidson diagonalization with overlap

---- Real-time Memory Report at c_bands before calling an iterative solver
          1313 MiB given to the printing process from OS
             0 MiB allocation reported by mallinfo(arena+hblkhd)
         11939 MiB available memory on the node where the printing process lives
------------------
     c_bands:  1 eigenvalues not converged
     c_bands:  1 eigenvalues not converged
     ethr =  1.00E-02,  avg # of iterations = 32.8

     =================== HUBBARD OCCUPATIONS ===================
     ------------------------ ATOM    1 ------------------------
     Tr[ns(  1)] =   0.03318
     eigenvalues:
       0.003  0.003  0.010
     eigenvectors (columns):
      -0.448  0.001 -0.894
       0.001  1.000  0.000
      -0.894  0.001  0.448
     occupation matrix ns (before diag.):
       0.009  0.000 -0.003
       0.000  0.003  0.000
      -0.003  0.000  0.004
     ------------------------ ATOM    2 ------------------------
     Tr[ns(  2)] =   3.54918
     eigenvalues:
       0.533  0.614  0.627
     eigenvectors (columns):
       0.997  0.000 -0.072
      -0.000 -1.000 -0.001
       0.072 -0.001  0.997
     occupation matrix ns (before diag.):
       0.533  0.000 -0.007
       0.000  0.614 -0.000
      -0.007 -0.000  0.627
     ------------------------ ATOM    3 ------------------------
     Tr[ns(  3)] =   0.00444
     eigenvalues:
       0.000  0.000  0.002
     eigenvectors (columns):
      -0.549 -0.001  0.836
      -0.003  1.000 -0.000
       0.836  0.002  0.549
     occupation matrix ns (before diag.):
       0.001 -0.000  0.001
      -0.000  0.000 -0.000
       0.001 -0.000  0.001
     ------------------------ ATOM    4 ------------------------
     Tr[ns(  4)] =   0.15584
     eigenvalues:
       0.007  0.008  0.064
     eigenvectors (columns):
      -0.000  0.014  1.000
      -1.000 -0.006 -0.000
       0.006 -1.000  0.014
     occupation matrix ns (before diag.):
       0.064 -0.000  0.001
      -0.000  0.007  0.000
       0.001  0.000  0.008
     ------------------------ ATOM    5 ------------------------
     Tr[ns(  5)] =   0.15572
     eigenvalues:
       0.007  0.008  0.063
     eigenvectors (columns):
      -0.000 -0.013 -1.000
       1.000 -0.007 -0.000
      -0.007 -1.000  0.013
     occupation matrix ns (before diag.):
       0.063  0.000 -0.001
       0.000  0.007  0.000
      -0.001  0.000  0.008
     ------------------------ ATOM    6 ------------------------
     Tr[ns(  6)] =   0.00444
     eigenvalues:
       0.000  0.000  0.002
     eigenvectors (columns):
       0.549 -0.001 -0.836
      -0.003 -1.000 -0.000
       0.836 -0.002  0.549
     occupation matrix ns (before diag.):
       0.001  0.000 -0.001
       0.000  0.000 -0.000
      -0.001 -0.000  0.001
     ------------------------ ATOM    7 ------------------------
     Tr[ns(  7)] =   3.54902
     eigenvalues:
       0.533  0.614  0.627
     eigenvectors (columns):
      -0.997  0.000  0.072
      -0.000  1.000 -0.001
       0.072  0.001  0.997
     occupation matrix ns (before diag.):
       0.533 -0.000  0.007
      -0.000  0.614 -0.000
       0.007 -0.000  0.627
     ------------------------ ATOM    8 ------------------------
     Tr[ns(  8)] =   0.03318
     eigenvalues:
       0.003  0.003  0.010
     eigenvectors (columns):
      -0.448  0.001  0.894
       0.001  1.000 -0.000
       0.894 -0.001  0.448
     occupation matrix ns (before diag.):
       0.009 -0.000  0.003
      -0.000  0.003 -0.000
       0.003 -0.000  0.004

     Number of occupied Hubbard levels =    7.4850

     HUBBARD ENERGY =    0.2387  (Ry)

     Adding external electric field

     Computed dipole along edir(3) : 
        Elec. dipole          0.6784 Ry au,          1.7242 Debye
        Ion. dipole           0.6311 Ry au,          1.6040 Debye
        Dipole               -3.8652 Ry au,         -9.8242 Debye
        Dipole field         -0.0473 Ry au, 

        Potential amp.        1.7825 Ry
        Total length         18.8500 bohr


     total cpu time spent up to now is      464.3 secs

     total energy              =    -159.86755229 Ry
     estimated scf accuracy    <    1941.19723637 Ry

     iteration #  2     ecut=    60.00 Ry     beta= 0.20
     Davidson diagonalization with overlap

---- Real-time Memory Report at c_bands before calling an iterative solver
          1863 MiB given to the printing process from OS
             0 MiB allocation reported by mallinfo(arena+hblkhd)
         11921 MiB available memory on the node where the printing process lives
------------------
     c_bands:  1 eigenvalues not converged
     ethr =  1.00E-02,  avg # of iterations = 16.6

     =================== HUBBARD OCCUPATIONS ===================
     ------------------------ ATOM    1 ------------------------
     Tr[ns(  1)] =   1.77915
     eigenvalues:
       0.240  0.277  0.373
     eigenvectors (columns):
      -0.239 -0.001  0.971
       0.002 -1.000 -0.001
       0.971  0.001  0.239
     occupation matrix ns (before diag.):
       0.365 -0.000  0.031
      -0.000  0.277 -0.000
       0.031 -0.000  0.248
     ------------------------ ATOM    2 ------------------------
     Tr[ns(  2)] =   0.02404
     eigenvalues:
       0.001  0.002  0.009
     eigenvectors (columns):
       0.423  0.001 -0.906
       0.001 -1.000 -0.000
       0.906  0.000  0.423
     occupation matrix ns (before diag.):
       0.008  0.000 -0.003
       0.000  0.002 -0.000
      -0.003 -0.000  0.003
     ------------------------ ATOM    3 ------------------------
     Tr[ns(  3)] =   5.75741
     eigenvalues:
       0.944  0.966  0.968
     eigenvectors (columns):
       0.942 -0.003 -0.334
       0.000  1.000 -0.007
       0.334  0.006  0.942
     occupation matrix ns (before diag.):
       0.947 -0.000 -0.008
      -0.000  0.966 -0.000
      -0.008 -0.000  0.966
     ------------------------ ATOM    4 ------------------------
     Tr[ns(  4)] =   0.94487
     eigenvalues:
       0.091  0.101  0.280
     eigenvectors (columns):
       0.192  0.004 -0.981
      -0.022  1.000 -0.000
       0.981  0.022  0.192
     occupation matrix ns (before diag.):
       0.273  0.000 -0.036
       0.000  0.101  0.000
      -0.036  0.000  0.098
     ------------------------ ATOM    5 ------------------------
     Tr[ns(  5)] =   0.94510
     eigenvalues:
       0.091  0.101  0.281
     eigenvectors (columns):
      -0.193 -0.005 -0.981
      -0.027  1.000  0.000
       0.981  0.026 -0.193
     occupation matrix ns (before diag.):
       0.274 -0.000  0.036
      -0.000  0.101  0.000
       0.036  0.000  0.098
     ------------------------ ATOM    6 ------------------------
     Tr[ns(  6)] =   5.75745
     eigenvalues:
       0.944  0.966  0.969
     eigenvectors (columns):
      -0.943  0.000 -0.334
      -0.002 -1.000  0.003
       0.334 -0.004 -0.943
     occupation matrix ns (before diag.):
       0.947 -0.000  0.008
      -0.000  0.966  0.000
       0.008  0.000  0.966
     ------------------------ ATOM    7 ------------------------
     Tr[ns(  7)] =   0.02406
     eigenvalues:
       0.001  0.002  0.009
     eigenvectors (columns):
       0.423  0.001  0.906
       0.003 -1.000  0.000
      -0.906 -0.003  0.423
     occupation matrix ns (before diag.):
       0.008 -0.000  0.003
      -0.000  0.002  0.000
       0.003  0.000  0.003
     ------------------------ ATOM    8 ------------------------
     Tr[ns(  8)] =   1.77893
     eigenvalues:
       0.240  0.277  0.373
     eigenvectors (columns):
       0.240  0.000  0.971
      -0.002 -1.000  0.001
       0.971 -0.002 -0.240
     occupation matrix ns (before diag.):
       0.365  0.000 -0.031
       0.000  0.277  0.000
      -0.031  0.000  0.248

     Number of occupied Hubbard levels =   17.0110

     HUBBARD ENERGY =    0.3922  (Ry)

     Adding external electric field

     Computed dipole along edir(3) : 
        Elec. dipole          0.5012 Ry au,          1.2740 Debye
        Ion. dipole           0.6311 Ry au,          1.6040 Debye
        Dipole               10.6139 Ry au,         26.9779 Debye
        Dipole field          0.1298 Ry au, 

        Potential amp.       -4.8949 Ry
        Total length         18.8500 bohr


     total cpu time spent up to now is      760.8 secs

     total energy              =    -422.34678089 Ry
     estimated scf accuracy    <     525.33284878 Ry

     iteration #  3     ecut=    60.00 Ry     beta= 0.20
     Davidson diagonalization with overlap

---- Real-time Memory Report at c_bands before calling an iterative solver
          1865 MiB given to the printing process from OS
             0 MiB allocation reported by mallinfo(arena+hblkhd)
         11918 MiB available memory on the node where the printing process lives
------------------
     ethr =  1.00E-02,  avg # of iterations =  7.4

     =================== HUBBARD OCCUPATIONS ===================
     ------------------------ ATOM    1 ------------------------
     Tr[ns(  1)] =   0.14849
     eigenvalues:
       0.002  0.011  0.061
     eigenvectors (columns):
       0.668 -0.000 -0.744
      -0.001 -1.000 -0.001
       0.744 -0.001  0.668
     occupation matrix ns (before diag.):
       0.035  0.000 -0.029
       0.000  0.011 -0.000
      -0.029 -0.000  0.028
     ------------------------ ATOM    2 ------------------------
     Tr[ns(  2)] =   0.19585
     eigenvalues:
       0.009  0.013  0.076
     eigenvectors (columns):
      -0.316  0.005 -0.949
       0.010  1.000  0.002
      -0.949  0.009  0.316
     occupation matrix ns (before diag.):
       0.069 -0.000 -0.020
      -0.000  0.013  0.000
      -0.020  0.000  0.016
     ------------------------ ATOM    3 ------------------------
     Tr[ns(  3)] =   2.81648
     eigenvalues:
       0.384  0.499  0.526
     eigenvectors (columns):
       0.999  0.003  0.035
       0.002 -1.000  0.018
      -0.036  0.018  0.999
     occupation matrix ns (before diag.):
       0.384 -0.000  0.005
      -0.000  0.499  0.001
       0.005  0.001  0.526
     ------------------------ ATOM    4 ------------------------
     Tr[ns(  4)] =   5.71808
     eigenvalues:
       0.927  0.965  0.967
     eigenvectors (columns):
       1.000 -0.016 -0.001
       0.001 -0.029  1.000
       0.016  0.999  0.029
     occupation matrix ns (before diag.):
       0.927 -0.000 -0.001
      -0.000  0.967  0.000
      -0.001  0.000  0.965
     ------------------------ ATOM    5 ------------------------
     Tr[ns(  5)] =   5.71822
     eigenvalues:
       0.927  0.965  0.967
     eigenvectors (columns):
       1.000  0.018  0.000
      -0.000 -0.024  1.000
      -0.018  1.000  0.024
     occupation matrix ns (before diag.):
       0.927  0.000  0.001
       0.000  0.967  0.000
       0.001  0.000  0.965
     ------------------------ ATOM    6 ------------------------
     Tr[ns(  6)] =   2.81443
     eigenvalues:
       0.384  0.498  0.526
     eigenvectors (columns):
      -0.999  0.003 -0.043
       0.003  1.000  0.005
      -0.043 -0.005  0.999
     occupation matrix ns (before diag.):
       0.384  0.000 -0.006
       0.000  0.498  0.000
      -0.006  0.000  0.526
     ------------------------ ATOM    7 ------------------------
     Tr[ns(  7)] =   0.19614
     eigenvalues:
       0.009  0.013  0.076
     eigenvectors (columns):
       0.315  0.007  0.949
       0.020 -1.000  0.001
      -0.949 -0.019  0.315
     occupation matrix ns (before diag.):
       0.070  0.000  0.020
       0.000  0.013  0.000
       0.020  0.000  0.016
     ------------------------ ATOM    8 ------------------------
     Tr[ns(  8)] =   0.14843
     eigenvalues:
       0.002  0.011  0.061
     eigenvectors (columns):
       0.669  0.001  0.744
       0.002 -1.000  0.000
      -0.744 -0.001  0.669
     occupation matrix ns (before diag.):
       0.035 -0.000  0.029
      -0.000  0.011  0.000
       0.029  0.000  0.028

     Number of occupied Hubbard levels =   17.7561

     HUBBARD ENERGY =    0.4160  (Ry)

     Adding external electric field

     Computed dipole along edir(3) : 
        Elec. dipole          0.5185 Ry au,          1.3179 Debye
        Ion. dipole           0.6311 Ry au,          1.6040 Debye
        Dipole                9.2045 Ry au,         23.3956 Debye
        Dipole field          0.1126 Ry au, 

        Potential amp.       -4.2449 Ry
        Total length         18.8500 bohr


     total cpu time spent up to now is      875.5 secs

     total energy              =    -447.49718474 Ry
     estimated scf accuracy    <     336.42934277 Ry

     iteration #  4     ecut=    60.00 Ry     beta= 0.20
     Davidson diagonalization with overlap

---- Real-time Memory Report at c_bands before calling an iterative solver
          1868 MiB given to the printing process from OS
             0 MiB allocation reported by mallinfo(arena+hblkhd)
         11916 MiB available memory on the node where the printing process lives
------------------
     ethr =  1.00E-02,  avg # of iterations =  2.5

     =================== HUBBARD OCCUPATIONS ===================
     ------------------------ ATOM    1 ------------------------
     Tr[ns(  1)] =   0.93839
     eigenvalues:
       0.099  0.158  0.212
     eigenvectors (columns):
       0.998 -0.058 -0.001
       0.001  0.002  1.000
       0.058  0.998 -0.002
     occupation matrix ns (before diag.):
       0.099 -0.000 -0.003
      -0.000  0.212 -0.000
      -0.003 -0.000  0.158
     ------------------------ ATOM    2 ------------------------
     Tr[ns(  2)] =   0.41062
     eigenvalues:
       0.013  0.075  0.117
     eigenvectors (columns):
       0.496 -0.001  0.868
      -0.002 -1.000  0.000
       0.868 -0.002 -0.496
     occupation matrix ns (before diag.):
       0.091  0.000 -0.045
       0.000  0.075  0.000
      -0.045  0.000  0.039
     ------------------------ ATOM    3 ------------------------
     Tr[ns(  3)] =   3.16800
     eigenvalues:
       0.460  0.537  0.588
     eigenvectors (columns):
      -0.953  0.000 -0.303
       0.000  1.000  0.000
      -0.303 -0.000  0.953
     occupation matrix ns (before diag.):
       0.471  0.000 -0.037
       0.000  0.537  0.000
      -0.037  0.000  0.576
     ------------------------ ATOM    4 ------------------------
     Tr[ns(  4)] =   5.60737
     eigenvalues:
       0.896  0.949  0.958
     eigenvectors (columns):
       0.980 -0.201 -0.000
       0.000  0.002  1.000
       0.201  0.980 -0.002
     occupation matrix ns (before diag.):
       0.899 -0.000 -0.010
      -0.000  0.958 -0.000
      -0.010 -0.000  0.947
     ------------------------ ATOM    5 ------------------------
     Tr[ns(  5)] =   5.60746
     eigenvalues:
       0.897  0.949  0.958
     eigenvectors (columns):
      -0.979  0.202  0.000
       0.000  0.002 -1.000
       0.202  0.979  0.002
     occupation matrix ns (before diag.):
       0.899 -0.000  0.010
      -0.000  0.958 -0.000
       0.010 -0.000  0.947
     ------------------------ ATOM    6 ------------------------
     Tr[ns(  6)] =   3.16711
     eigenvalues:
       0.459  0.536  0.588
     eigenvectors (columns):
      -0.953  0.001  0.303
       0.001  1.000 -0.001
       0.303  0.000  0.953
     occupation matrix ns (before diag.):
       0.471  0.000  0.037
       0.000  0.536 -0.000
       0.037 -0.000  0.576
     ------------------------ ATOM    7 ------------------------
     Tr[ns(  7)] =   0.41115
     eigenvalues:
       0.013  0.076  0.117
     eigenvectors (columns):
      -0.497 -0.001 -0.868
      -0.000  1.000 -0.001
       0.868 -0.000 -0.497
     occupation matrix ns (before diag.):
       0.091  0.000  0.045
       0.000  0.076  0.000
       0.045  0.000  0.039
     ------------------------ ATOM    8 ------------------------
     Tr[ns(  8)] =   0.93780
     eigenvalues:
       0.099  0.158  0.212
     eigenvectors (columns):
      -0.998  0.057 -0.000
       0.000  0.000 -1.000
       0.057  0.998  0.000
     occupation matrix ns (before diag.):
       0.099  0.000  0.003
       0.000  0.212 -0.000
       0.003 -0.000  0.158

     Number of occupied Hubbard levels =   20.2479

     HUBBARD ENERGY =    0.5975  (Ry)

     Adding external electric field

     Computed dipole along edir(3) : 
        Elec. dipole          0.4629 Ry au,          1.1767 Debye
        Ion. dipole           0.6311 Ry au,          1.6040 Debye
        Dipole               13.7450 Ry au,         34.9362 Debye
        Dipole field          0.1681 Ry au, 

        Potential amp.       -6.3388 Ry
        Total length         18.8500 bohr


     total cpu time spent up to now is      928.7 secs

     total energy              =    -432.14853367 Ry
     estimated scf accuracy    <     157.38733187 Ry

     iteration #  5     ecut=    60.00 Ry     beta= 0.20
     Davidson diagonalization with overlap

---- Real-time Memory Report at c_bands before calling an iterative solver
          1870 MiB given to the printing process from OS
             0 MiB allocation reported by mallinfo(arena+hblkhd)
         11916 MiB available memory on the node where the printing process lives
------------------
     ethr =  1.00E-02,  avg # of iterations =  7.6

     =================== HUBBARD OCCUPATIONS ===================
     ------------------------ ATOM    1 ------------------------
     Tr[ns(  1)] =   0.02568
     eigenvalues:
       0.002  0.003  0.007
     eigenvectors (columns):
      -0.002  0.447 -0.894
      -1.000 -0.003  0.000
      -0.003  0.894  0.447
     occupation matrix ns (before diag.):
       0.007 -0.000 -0.002
      -0.000  0.002 -0.000
      -0.002 -0.000  0.004
     ------------------------ ATOM    2 ------------------------
     Tr[ns(  2)] =   4.10242
     eigenvalues:
       0.486  0.775  0.790
     eigenvectors (columns):
       0.995  0.000  0.097
       0.000  1.000 -0.008
       0.097 -0.008 -0.995
     occupation matrix ns (before diag.):
       0.489 -0.000 -0.029
      -0.000  0.775  0.000
      -0.029  0.000  0.787
     ------------------------ ATOM    3 ------------------------
     Tr[ns(  3)] =   1.17845
     eigenvalues:
       0.128  0.219  0.242
     eigenvectors (columns):
      -0.876  0.482  0.003
       0.001  0.008 -1.000
       0.482  0.876  0.007
     occupation matrix ns (before diag.):
       0.149 -0.000  0.038
      -0.000  0.242 -0.000
       0.038 -0.000  0.198
     ------------------------ ATOM    4 ------------------------
     Tr[ns(  4)] =   5.36512
     eigenvalues:
       0.878  0.900  0.904
     eigenvectors (columns):
      -0.907 -0.420 -0.025
      -0.003  0.066 -0.998
      -0.420  0.905  0.061
     occupation matrix ns (before diag.):
       0.882  0.000 -0.008
       0.000  0.904 -0.000
      -0.008 -0.000  0.896
     ------------------------ ATOM    5 ------------------------
     Tr[ns(  5)] =   5.36631
     eigenvalues:
       0.879  0.900  0.904
     eigenvectors (columns):
      -0.908  0.418  0.027
       0.002  0.070 -0.998
       0.419  0.906  0.064
     occupation matrix ns (before diag.):
       0.882 -0.000  0.008
      -0.000  0.904 -0.000
       0.008 -0.000  0.897
     ------------------------ ATOM    6 ------------------------
     Tr[ns(  6)] =   1.17726
     eigenvalues:
       0.129  0.219  0.241
     eigenvectors (columns):
       0.876 -0.482  0.004
       0.000  0.008  1.000
       0.482  0.876 -0.007
     occupation matrix ns (before diag.):
       0.150  0.000 -0.038
       0.000  0.241 -0.000
      -0.038 -0.000  0.198
     ------------------------ ATOM    7 ------------------------
     Tr[ns(  7)] =   4.10360
     eigenvalues:
       0.487  0.775  0.790
     eigenvectors (columns):
      -0.995 -0.000 -0.097
       0.000 -1.000 -0.002
       0.097  0.002 -0.995
     occupation matrix ns (before diag.):
       0.490  0.000  0.029
       0.000  0.775  0.000
       0.029  0.000  0.787
     ------------------------ ATOM    8 ------------------------
     Tr[ns(  8)] =   0.02568
     eigenvalues:
       0.002  0.003  0.007
     eigenvectors (columns):
       0.002  0.447  0.895
      -1.000  0.001  0.001
      -0.001 -0.895  0.447
     occupation matrix ns (before diag.):
       0.007  0.000  0.002
       0.000  0.002  0.000
       0.002  0.000  0.004

     Number of occupied Hubbard levels =   21.3445

     HUBBARD ENERGY =    0.7142  (Ry)

     Adding external electric field

     Computed dipole along edir(3) : 
        Elec. dipole          0.6770 Ry au,          1.7207 Debye
        Ion. dipole           0.6311 Ry au,          1.6040 Debye
        Dipole               -3.7518 Ry au,         -9.5362 Debye
        Dipole field         -0.0459 Ry au, 

        Potential amp.        1.7302 Ry
        Total length         18.8500 bohr


     total cpu time spent up to now is     1027.9 secs

     total energy              =    -370.62599175 Ry
     estimated scf accuracy    <     423.38328504 Ry

     iteration #  6     ecut=    60.00 Ry     beta= 0.20
     Davidson diagonalization with overlap

---- Real-time Memory Report at c_bands before calling an iterative solver
          1871 MiB given to the printing process from OS
             0 MiB allocation reported by mallinfo(arena+hblkhd)
         11917 MiB available memory on the node where the printing process lives
------------------
     ethr =  1.00E-02,  avg # of iterations = 11.8

     =================== HUBBARD OCCUPATIONS ===================
     ------------------------ ATOM    1 ------------------------
     Tr[ns(  1)] =   5.77531
     eigenvalues:
       0.953  0.965  0.969
     eigenvectors (columns):
      -1.000  0.001 -0.018
       0.001  1.000  0.002
      -0.018 -0.002  1.000
     occupation matrix ns (before diag.):
       0.953  0.000 -0.000
       0.000  0.965  0.000
      -0.000  0.000  0.969
     ------------------------ ATOM    2 ------------------------
     Tr[ns(  2)] =   1.26983
     eigenvalues:
       0.122  0.147  0.365
     eigenvectors (columns):
      -0.111 -0.000  0.994
       0.000 -1.000 -0.000
       0.994  0.000  0.111
     occupation matrix ns (before diag.):
       0.362 -0.000  0.027
      -0.000  0.147 -0.000
       0.027 -0.000  0.125
     ------------------------ ATOM    3 ------------------------
     Tr[ns(  3)] =   0.47228
     eigenvalues:
       0.017  0.060  0.159
     eigenvectors (columns):
      -0.321 -0.001 -0.947
      -0.001  1.000 -0.000
       0.947  0.000 -0.321
     occupation matrix ns (before diag.):
       0.144  0.000  0.043
       0.000  0.060  0.000
       0.043  0.000  0.032
     ------------------------ ATOM    4 ------------------------
     Tr[ns(  4)] =   0.02421
     eigenvalues:
       0.001  0.001  0.010
     eigenvectors (columns):
       0.001  0.345  0.938
      -1.000  0.002  0.001
      -0.002 -0.938  0.345
     occupation matrix ns (before diag.):
       0.009  0.000  0.003
       0.000  0.001  0.000
       0.003  0.000  0.002
     ------------------------ ATOM    5 ------------------------
     Tr[ns(  5)] =   0.02421
     eigenvalues:
       0.001  0.001  0.010
     eigenvectors (columns):
       0.001 -0.345 -0.939
       1.000  0.003  0.000
       0.003 -0.939  0.345
     occupation matrix ns (before diag.):
       0.009 -0.000 -0.003
      -0.000  0.001  0.000
      -0.003  0.000  0.002
     ------------------------ ATOM    6 ------------------------
     Tr[ns(  6)] =   0.47220
     eigenvalues:
       0.017  0.060  0.159
     eigenvectors (columns):
       0.321 -0.000  0.947
      -0.000 -1.000 -0.000
       0.947  0.000 -0.321
     occupation matrix ns (before diag.):
       0.144 -0.000 -0.043
      -0.000  0.060  0.000
      -0.043  0.000  0.032
     ------------------------ ATOM    7 ------------------------
     Tr[ns(  7)] =   1.26945
     eigenvalues:
       0.122  0.147  0.365
     eigenvectors (columns):
       0.112 -0.000 -0.994
       0.001  1.000 -0.000
       0.994 -0.001  0.112
     occupation matrix ns (before diag.):
       0.362  0.000 -0.027
       0.000  0.147 -0.000
      -0.027 -0.000  0.125
     ------------------------ ATOM    8 ------------------------
     Tr[ns(  8)] =   5.77542
     eigenvalues:
       0.953  0.965  0.969
     eigenvectors (columns):
       1.000  0.002  0.019
       0.002 -1.000  0.003
      -0.019  0.003  1.000
     occupation matrix ns (before diag.):
       0.953 -0.000  0.000
      -0.000  0.965  0.000
       0.000  0.000  0.969

     Number of occupied Hubbard levels =   15.0829

     HUBBARD ENERGY =    0.6337  (Ry)

     Adding external electric field

     Computed dipole along edir(3) : 
        Elec. dipole          0.5424 Ry au,          1.3785 Debye
        Ion. dipole           0.6311 Ry au,          1.6040 Debye
        Dipole                7.2531 Ry au,         18.4356 Debye
        Dipole field          0.0887 Ry au, 

        Potential amp.       -3.3449 Ry
        Total length         18.8500 bohr


     total cpu time spent up to now is     1209.2 secs

     total energy              =    -401.34163803 Ry
     estimated scf accuracy    <    1585.74837501 Ry

     iteration #  7     ecut=    60.00 Ry     beta= 0.20
     Davidson diagonalization with overlap

---- Real-time Memory Report at c_bands before calling an iterative solver
          1873 MiB given to the printing process from OS
             0 MiB allocation reported by mallinfo(arena+hblkhd)
         11911 MiB available memory on the node where the printing process lives
------------------
     ethr =  1.00E-02,  avg # of iterations =  7.8

     =================== HUBBARD OCCUPATIONS ===================
     ------------------------ ATOM    1 ------------------------
     Tr[ns(  1)] =   2.83285
     eigenvalues:
       0.407  0.450  0.560
     eigenvectors (columns):
      -0.955  0.004  0.296
       0.005  1.000 -0.000
       0.296 -0.001  0.955
     occupation matrix ns (before diag.):
       0.420  0.000  0.043
       0.000  0.450 -0.000
       0.043 -0.000  0.546
     ------------------------ ATOM    2 ------------------------
     Tr[ns(  2)] =   0.19170
     eigenvalues:
       0.014  0.033  0.049
     eigenvectors (columns):
       0.756  0.001 -0.655
      -0.000 -1.000 -0.001
       0.655 -0.001  0.756
     occupation matrix ns (before diag.):
       0.029  0.000 -0.017
       0.000  0.033 -0.000
      -0.017 -0.000  0.034
     ------------------------ ATOM    3 ------------------------
     Tr[ns(  3)] =   5.21658
     eigenvalues:
       0.817  0.885  0.905
     eigenvectors (columns):
      -0.798 -0.001 -0.603
      -0.000 -1.000  0.002
      -0.603  0.002  0.798
     occupation matrix ns (before diag.):
       0.849 -0.000 -0.042
      -0.000  0.885  0.000
      -0.042  0.000  0.873
     ------------------------ ATOM    4 ------------------------
     Tr[ns(  4)] =   3.87973
     eigenvalues:
       0.522  0.678  0.740
     eigenvectors (columns):
       0.937  0.002  0.349
      -0.002  1.000  0.000
       0.349  0.001 -0.937
     occupation matrix ns (before diag.):
       0.549  0.000 -0.071
       0.000  0.678  0.000
      -0.071  0.000  0.714
     ------------------------ ATOM    5 ------------------------
     Tr[ns(  5)] =   3.88296
     eigenvalues:
       0.524  0.677  0.741
     eigenvectors (columns):
      -0.938  0.002 -0.347
      -0.002 -1.000  0.000
       0.347 -0.001 -0.938
     occupation matrix ns (before diag.):
       0.550 -0.000  0.071
      -0.000  0.677  0.000
       0.071  0.000  0.715
     ------------------------ ATOM    6 ------------------------
     Tr[ns(  6)] =   5.21736
     eigenvalues:
       0.818  0.885  0.905
     eigenvectors (columns):
      -0.799 -0.000  0.602
       0.001 -1.000  0.001
       0.602  0.001  0.799
     occupation matrix ns (before diag.):
       0.850  0.000  0.042
       0.000  0.885 -0.000
       0.042 -0.000  0.874
     ------------------------ ATOM    7 ------------------------
     Tr[ns(  7)] =   0.19162
     eigenvalues:
       0.014  0.033  0.049
     eigenvectors (columns):
      -0.755  0.000  0.655
       0.000  1.000  0.000
       0.655 -0.000  0.755
     occupation matrix ns (before diag.):
       0.029  0.000  0.017
       0.000  0.033 -0.000
       0.017 -0.000  0.034
     ------------------------ ATOM    8 ------------------------
     Tr[ns(  8)] =   2.83274
     eigenvalues:
       0.407  0.449  0.559
     eigenvectors (columns):
       0.955  0.002 -0.296
       0.002 -1.000 -0.000
       0.296  0.000  0.955
     occupation matrix ns (before diag.):
       0.421 -0.000 -0.043
      -0.000  0.449 -0.000
      -0.043 -0.000  0.546

     Number of occupied Hubbard levels =   24.2455

     HUBBARD ENERGY =    0.7319  (Ry)

     Adding external electric field

     Computed dipole along edir(3) : 
        Elec. dipole          0.5317 Ry au,          1.3514 Debye
        Ion. dipole           0.6311 Ry au,          1.6040 Debye
        Dipole                8.1250 Ry au,         20.6517 Debye
        Dipole field          0.0994 Ry au, 

        Potential amp.       -3.7470 Ry
        Total length         18.8500 bohr


     total cpu time spent up to now is     1334.2 secs

     total energy              =    -434.34371408 Ry
     estimated scf accuracy    <     153.64773004 Ry

     iteration #  8     ecut=    60.00 Ry     beta= 0.20
     Davidson diagonalization with overlap

---- Real-time Memory Report at c_bands before calling an iterative solver
          1876 MiB given to the printing process from OS
             0 MiB allocation reported by mallinfo(arena+hblkhd)
         11910 MiB available memory on the node where the printing process lives
------------------
     ethr =  1.00E-02,  avg # of iterations =  2.5

     =================== HUBBARD OCCUPATIONS ===================
     ------------------------ ATOM    1 ------------------------
     Tr[ns(  1)] =   3.31421
     eigenvalues:
       0.465  0.587  0.605
     eigenvectors (columns):
       0.001  0.722  0.692
      -1.000  0.001  0.001
       0.000 -0.692  0.722
     occupation matrix ns (before diag.):
       0.596  0.000  0.009
       0.000  0.465  0.000
       0.009  0.000  0.596
     ------------------------ ATOM    2 ------------------------
     Tr[ns(  2)] =   2.34328
     eigenvalues:
       0.140  0.450  0.582
     eigenvectors (columns):
      -0.996 -0.000  0.087
      -0.000  1.000 -0.002
       0.087  0.002  0.996
     occupation matrix ns (before diag.):
       0.144 -0.000  0.038
      -0.000  0.450 -0.000
       0.038 -0.000  0.578
     ------------------------ ATOM    3 ------------------------
     Tr[ns(  3)] =   3.90717
     eigenvalues:
       0.585  0.607  0.762
     eigenvectors (columns):
      -0.001  0.612 -0.791
      -1.000 -0.004 -0.001
      -0.004  0.791  0.612
     occupation matrix ns (before diag.):
       0.704  0.000 -0.075
       0.000  0.585 -0.000
      -0.075 -0.000  0.665
     ------------------------ ATOM    4 ------------------------
     Tr[ns(  4)] =   3.09319
     eigenvalues:
       0.421  0.490  0.635
     eigenvectors (columns):
       0.797 -0.001 -0.605
      -0.002 -1.000 -0.001
       0.605 -0.002  0.797
     occupation matrix ns (before diag.):
       0.499  0.000 -0.103
       0.000  0.490 -0.000
      -0.103 -0.000  0.557
     ------------------------ ATOM    5 ------------------------
     Tr[ns(  5)] =   3.09510
     eigenvalues:
       0.421  0.491  0.635
     eigenvectors (columns):
      -0.797 -0.001  0.604
      -0.002  1.000 -0.001
       0.604  0.002  0.797
     occupation matrix ns (before diag.):
       0.500 -0.000  0.103
      -0.000  0.491 -0.000
       0.103 -0.000  0.557
     ------------------------ ATOM    6 ------------------------
     Tr[ns(  6)] =   3.90617
     eigenvalues:
       0.585  0.606  0.761
     eigenvectors (columns):
      -0.002 -0.612  0.791
       1.000 -0.005 -0.001
       0.005  0.791  0.612
     occupation matrix ns (before diag.):
       0.703 -0.000  0.075
      -0.000  0.585 -0.000
       0.075 -0.000  0.664
     ------------------------ ATOM    7 ------------------------
     Tr[ns(  7)] =   2.34256
     eigenvalues:
       0.140  0.450  0.581
     eigenvectors (columns):
       0.996  0.000 -0.087
       0.000 -1.000 -0.000
       0.087 -0.000  0.996
     occupation matrix ns (before diag.):
       0.143 -0.000 -0.038
      -0.000  0.450 -0.000
      -0.038 -0.000  0.578
     ------------------------ ATOM    8 ------------------------
     Tr[ns(  8)] =   3.31265
     eigenvalues:
       0.465  0.587  0.605
     eigenvectors (columns):
       0.001 -0.730 -0.684
       1.000  0.000  0.000
       0.000 -0.684  0.730
     occupation matrix ns (before diag.):
       0.595 -0.000 -0.009
      -0.000  0.465  0.000
      -0.009  0.000  0.596

     Number of occupied Hubbard levels =   25.3143

     HUBBARD ENERGY =    0.7211  (Ry)

     Adding external electric field

     Computed dipole along edir(3) : 
        Elec. dipole          0.5212 Ry au,          1.3249 Debye
        Ion. dipole           0.6311 Ry au,          1.6040 Debye
        Dipole                8.9784 Ry au,         22.8209 Debye
        Dipole field          0.1098 Ry au, 

        Potential amp.       -4.1406 Ry
        Total length         18.8500 bohr


     total cpu time spent up to now is     1389.3 secs

     total energy              =    -437.95937098 Ry
     estimated scf accuracy    <      27.30818937 Ry

     iteration #  9     ecut=    60.00 Ry     beta= 0.20
     Davidson diagonalization with overlap

---- Real-time Memory Report at c_bands before calling an iterative solver
          1878 MiB given to the printing process from OS
             0 MiB allocation reported by mallinfo(arena+hblkhd)
         11908 MiB available memory on the node where the printing process lives
------------------
     ethr =  1.00E-02,  avg # of iterations =  2.3

     =================== HUBBARD OCCUPATIONS ===================
     ------------------------ ATOM    1 ------------------------
     Tr[ns(  1)] =   1.58001
     eigenvalues:
       0.109  0.298  0.384
     eigenvectors (columns):
       0.993  0.114  0.000
      -0.000 -0.002  1.000
      -0.114  0.993  0.002
     occupation matrix ns (before diag.):
       0.111  0.000  0.021
       0.000  0.384  0.000
       0.021  0.000  0.295
     ------------------------ ATOM    2 ------------------------
     Tr[ns(  2)] =   1.96307
     eigenvalues:
       0.106  0.422  0.453
     eigenvectors (columns):
      -0.995 -0.000  0.103
      -0.000  1.000 -0.001
       0.103  0.001  0.995
     occupation matrix ns (before diag.):
       0.110 -0.000  0.036
      -0.000  0.422 -0.000
       0.036 -0.000  0.450
     ------------------------ ATOM    3 ------------------------
     Tr[ns(  3)] =   4.46786
     eigenvalues:
       0.668  0.749  0.817
     eigenvectors (columns):
       0.773  0.001 -0.634
       0.003 -1.000  0.002
       0.634  0.003  0.773
     occupation matrix ns (before diag.):
       0.728 -0.000 -0.073
      -0.000  0.749 -0.000
      -0.073 -0.000  0.757
     ------------------------ ATOM    4 ------------------------
     Tr[ns(  4)] =   4.23200
     eigenvalues:
       0.607  0.716  0.793
     eigenvectors (columns):
       0.840  0.007  0.542
      -0.003  1.000 -0.009
       0.542 -0.006 -0.840
     occupation matrix ns (before diag.):
       0.662 -0.000 -0.085
      -0.000  0.716  0.001
      -0.085  0.001  0.738
     ------------------------ ATOM    5 ------------------------
     Tr[ns(  5)] =   4.23246
     eigenvalues:
       0.607  0.716  0.793
     eigenvectors (columns):
      -0.840  0.007 -0.543
      -0.003 -1.000 -0.009
       0.543  0.006 -0.840
     occupation matrix ns (before diag.):
       0.662  0.000  0.085
       0.000  0.716  0.001
       0.085  0.001  0.738
     ------------------------ ATOM    6 ------------------------
     Tr[ns(  6)] =   4.46725
     eigenvalues:
       0.668  0.749  0.817
     eigenvectors (columns):
      -0.773  0.001  0.635
       0.003  1.000  0.002
       0.635 -0.003  0.773
     occupation matrix ns (before diag.):
       0.728  0.000  0.073
       0.000  0.749 -0.000
       0.073 -0.000  0.757
     ------------------------ ATOM    7 ------------------------
     Tr[ns(  7)] =   1.96312
     eigenvalues:
       0.106  0.422  0.453
     eigenvectors (columns):
       0.995  0.000 -0.104
       0.000 -1.000  0.000
       0.104  0.000  0.995
     occupation matrix ns (before diag.):
       0.110 -0.000 -0.036
      -0.000  0.422 -0.000
      -0.036 -0.000  0.449
     ------------------------ ATOM    8 ------------------------
     Tr[ns(  8)] =   1.57958
     eigenvalues:
       0.109  0.298  0.384
     eigenvectors (columns):
      -0.993 -0.114  0.000
      -0.000 -0.001 -1.000
      -0.114  0.993 -0.001
     occupation matrix ns (before diag.):
       0.111 -0.000 -0.021
      -0.000  0.384  0.000
      -0.021  0.000  0.295

     Number of occupied Hubbard levels =   24.4853

     HUBBARD ENERGY =    0.7084  (Ry)

     Adding external electric field

     Computed dipole along edir(3) : 
        Elec. dipole          0.5238 Ry au,          1.3313 Debye
        Ion. dipole           0.6311 Ry au,          1.6040 Debye
        Dipole                8.7717 Ry au,         22.2955 Debye
        Dipole field          0.1073 Ry au, 

        Potential amp.       -4.0453 Ry
        Total length         18.8500 bohr


     total cpu time spent up to now is     1445.6 secs

     total energy              =    -440.91196232 Ry
     estimated scf accuracy    <      33.57749610 Ry

     iteration # 10     ecut=    60.00 Ry     beta= 0.20
     Davidson diagonalization with overlap

---- Real-time Memory Report at c_bands before calling an iterative solver
          1879 MiB given to the printing process from OS
             0 MiB allocation reported by mallinfo(arena+hblkhd)
         11906 MiB available memory on the node where the printing process lives
------------------
     ethr =  1.00E-02,  avg # of iterations =  1.3

     =================== HUBBARD OCCUPATIONS ===================
     ------------------------ ATOM    1 ------------------------
     Tr[ns(  1)] =   1.60511
     eigenvalues:
       0.131  0.288  0.384
     eigenvectors (columns):
      -0.978  0.210  0.001
      -0.000  0.002 -1.000
       0.210  0.978  0.002
     occupation matrix ns (before diag.):
       0.138 -0.000  0.032
      -0.000  0.384 -0.000
       0.032 -0.000  0.281
     ------------------------ ATOM    2 ------------------------
     Tr[ns(  2)] =   0.93215
     eigenvalues:
       0.098  0.176  0.192
     eigenvectors (columns):
       1.000  0.006  0.000
      -0.000 -0.008  1.000
      -0.006  1.000  0.008
     occupation matrix ns (before diag.):
       0.098  0.000  0.000
       0.000  0.192  0.000
       0.000  0.000  0.176
     ------------------------ ATOM    3 ------------------------
     Tr[ns(  3)] =   5.01241
     eigenvalues:
       0.777  0.848  0.881
     eigenvectors (columns):
       0.800 -0.002 -0.600
       0.001  1.000 -0.001
       0.600 -0.000  0.800
     occupation matrix ns (before diag.):
       0.815 -0.000 -0.050
      -0.000  0.848 -0.000
      -0.050 -0.000  0.844
     ------------------------ ATOM    4 ------------------------
     Tr[ns(  4)] =   4.48925
     eigenvalues:
       0.652  0.772  0.820
     eigenvectors (columns):
       0.887  0.002  0.461
      -0.002  1.000  0.001
       0.461  0.002 -0.887
     occupation matrix ns (before diag.):
       0.688  0.000 -0.069
       0.000  0.772  0.000
      -0.069  0.000  0.785
     ------------------------ ATOM    5 ------------------------
     Tr[ns(  5)] =   4.49166
     eigenvalues:
       0.653  0.772  0.820
     eigenvectors (columns):
      -0.888  0.002 -0.460
      -0.002 -1.000  0.000
       0.460 -0.001 -0.888
     occupation matrix ns (before diag.):
       0.689 -0.000  0.068
      -0.000  0.772  0.000
       0.068  0.000  0.785
     ------------------------ ATOM    6 ------------------------
     Tr[ns(  6)] =   5.01354
     eigenvalues:
       0.778  0.848  0.881
     eigenvectors (columns):
      -0.800 -0.002  0.601
       0.002 -1.000 -0.000
       0.601  0.001  0.800
     occupation matrix ns (before diag.):
       0.815  0.000  0.049
       0.000  0.848 -0.000
       0.049 -0.000  0.844
     ------------------------ ATOM    7 ------------------------
     Tr[ns(  7)] =   0.93267
     eigenvalues:
       0.098  0.176  0.192
     eigenvectors (columns):
       1.000 -0.007 -0.001
       0.001 -0.008  1.000
       0.007  1.000  0.008
     occupation matrix ns (before diag.):
       0.098 -0.000 -0.001
      -0.000  0.192  0.000
      -0.001  0.000  0.176
     ------------------------ ATOM    8 ------------------------
     Tr[ns(  8)] =   1.60636
     eigenvalues:
       0.131  0.289  0.383
     eigenvectors (columns):
       0.978 -0.209  0.001
      -0.000  0.003  1.000
       0.209  0.978 -0.003
     occupation matrix ns (before diag.):
       0.138  0.000 -0.032
       0.000  0.383 -0.000
      -0.032 -0.000  0.282

     Number of occupied Hubbard levels =   24.0832

     HUBBARD ENERGY =    0.7991  (Ry)

     Adding external electric field

     Computed dipole along edir(3) : 
        Elec. dipole          0.5160 Ry au,          1.3114 Debye
        Ion. dipole           0.6311 Ry au,          1.6040 Debye
        Dipole                9.4105 Ry au,         23.9191 Debye
        Dipole field          0.1151 Ry au, 

        Potential amp.       -4.3399 Ry
        Total length         18.8500 bohr


     total cpu time spent up to now is     1510.5 secs

     total energy              =    -430.91255272 Ry
     estimated scf accuracy    <      71.97436583 Ry

     iteration # 11     ecut=    60.00 Ry     beta= 0.20
     Davidson diagonalization with overlap

---- Real-time Memory Report at c_bands before calling an iterative solver
          1879 MiB given to the printing process from OS
             0 MiB allocation reported by mallinfo(arena+hblkhd)
         11899 MiB available memory on the node where the printing process lives
------------------
     ethr =  1.00E-02,  avg # of iterations =  4.3

     =================== HUBBARD OCCUPATIONS ===================
     ------------------------ ATOM    1 ------------------------
     Tr[ns(  1)] =   2.39544
     eigenvalues:
       0.230  0.460  0.508
     eigenvectors (columns):
       0.993  0.001 -0.119
       0.000 -1.000 -0.002
       0.119 -0.002  0.993
     occupation matrix ns (before diag.):
       0.234 -0.000 -0.033
      -0.000  0.460 -0.000
      -0.033 -0.000  0.504
     ------------------------ ATOM    2 ------------------------
     Tr[ns(  2)] =   3.66074
     eigenvalues:
       0.279  0.771  0.781
     eigenvectors (columns):
       0.999  0.037  0.000
       0.000 -0.007  1.000
      -0.037  0.999  0.007
     occupation matrix ns (before diag.):
       0.279 -0.000  0.018
      -0.000  0.781  0.000
       0.018  0.000  0.770
     ------------------------ ATOM    3 ------------------------
     Tr[ns(  3)] =   3.38033
     eigenvalues:
       0.484  0.504  0.702
     eigenvectors (columns):
      -0.001  0.599 -0.801
      -1.000 -0.002 -0.000
      -0.002  0.801  0.599
     occupation matrix ns (before diag.):
       0.631  0.000 -0.095
       0.000  0.484 -0.000
      -0.095 -0.000  0.575
     ------------------------ ATOM    4 ------------------------
     Tr[ns(  4)] =   3.15052
     eigenvalues:
       0.451  0.471  0.653
     eigenvectors (columns):
       0.651  0.000 -0.759
       0.000 -1.000 -0.000
       0.759 -0.000  0.651
     occupation matrix ns (before diag.):
       0.568  0.000 -0.100
       0.000  0.471 -0.000
      -0.100 -0.000  0.537
     ------------------------ ATOM    5 ------------------------
     Tr[ns(  5)] =   3.15127
     eigenvalues:
       0.451  0.471  0.653
     eigenvectors (columns):
      -0.651  0.001  0.759
       0.001  1.000 -0.000
       0.759 -0.001  0.651
     occupation matrix ns (before diag.):
       0.568 -0.000  0.100
      -0.000  0.471 -0.000
       0.100 -0.000  0.537
     ------------------------ ATOM    6 ------------------------
     Tr[ns(  6)] =   3.37933
     eigenvalues:
       0.484  0.504  0.702
     eigenvectors (columns):
      -0.001 -0.599  0.801
       1.000 -0.001 -0.000
       0.001  0.801  0.599
     occupation matrix ns (before diag.):
       0.631 -0.000  0.095
      -0.000  0.484 -0.000
       0.095 -0.000  0.575
[...]
     eigenvectors (columns):
      -0.998  0.005 -0.069
       0.005  1.000  0.001
      -0.069 -0.001  0.998
     occupation matrix ns (before diag.):
       0.344  0.001 -0.014
       0.001  0.459  0.000
      -0.014  0.000  0.553
     ------------------------ ATOM    2 ------------------------
     Tr[ns(  2)] =   3.43456
     eigenvalues:
       0.282  0.711  0.725
     eigenvectors (columns):
      -0.995  0.002  0.099
       0.001  1.000 -0.005
       0.099  0.005  0.995
     occupation matrix ns (before diag.):
       0.286  0.000  0.044
       0.000  0.711 -0.000
       0.044 -0.000  0.720
     ------------------------ ATOM    3 ------------------------
     Tr[ns(  3)] =   3.30605
     eigenvalues:
       0.474  0.479  0.700
     eigenvectors (columns):
       0.666 -0.009 -0.746
      -0.014 -1.000 -0.001
       0.746 -0.011  0.666
     occupation matrix ns (before diag.):
       0.600  0.000 -0.112
       0.000  0.479 -0.000
      -0.112 -0.000  0.574
     ------------------------ ATOM    4 ------------------------
     Tr[ns(  4)] =   3.38729
     eigenvalues:
       0.479  0.491  0.723
     eigenvectors (columns):
      -0.002  0.609 -0.793
      -1.000 -0.003  0.000
      -0.003  0.793  0.609
     occupation matrix ns (before diag.):
       0.637 -0.000 -0.112
      -0.000  0.479 -0.000
      -0.112 -0.000  0.577
     ------------------------ ATOM    5 ------------------------
     Tr[ns(  5)] =   3.38729
     eigenvalues:
       0.479  0.491  0.723
     eigenvectors (columns):
      -0.002 -0.609  0.793
       1.000 -0.003  0.000
       0.003  0.793  0.609
     occupation matrix ns (before diag.):
       0.637  0.000  0.112
       0.000  0.479 -0.000
       0.112 -0.000  0.577
     ------------------------ ATOM    6 ------------------------
     Tr[ns(  6)] =   3.30606
     eigenvalues:
       0.474  0.479  0.700
     eigenvectors (columns):
      -0.666 -0.009  0.746
      -0.014  1.000 -0.001
       0.746  0.011  0.666
     occupation matrix ns (before diag.):
       0.600 -0.000  0.112
      -0.000  0.479 -0.000
       0.112 -0.000  0.574
     ------------------------ ATOM    7 ------------------------
     Tr[ns(  7)] =   3.43456
     eigenvalues:
       0.282  0.711  0.725
     eigenvectors (columns):
       0.995  0.002 -0.099
       0.001 -1.000 -0.005
       0.099 -0.005  0.995
     occupation matrix ns (before diag.):
       0.286 -0.000 -0.044
      -0.000  0.711 -0.000
      -0.044 -0.000  0.720
     ------------------------ ATOM    8 ------------------------
     Tr[ns(  8)] =   2.71225
     eigenvalues:
       0.343  0.459  0.554
     eigenvectors (columns):
       0.998  0.005  0.069
       0.005 -1.000  0.001
      -0.069  0.001  0.998
     occupation matrix ns (before diag.):
       0.344 -0.001  0.014
      -0.001  0.459  0.000
       0.014  0.000  0.553

     Number of occupied Hubbard levels =   25.6803

     HUBBARD ENERGY =    0.8047  (Ry)

     Adding external electric field

     Computed dipole along edir(3) : 
        Elec. dipole          0.5281 Ry au,          1.3422 Debye
        Ion. dipole           0.6311 Ry au,          1.6040 Debye
        Dipole                8.4199 Ry au,         21.4013 Debye
        Dipole field          0.1030 Ry au, 

        Potential amp.       -3.8830 Ry
        Total length         18.8500 bohr


     total cpu time spent up to now is     6016.6 secs

     total energy              =    -436.76572377 Ry
     estimated scf accuracy    <       0.00000011 Ry

     iteration # 98     ecut=    60.00 Ry     beta= 0.20
     Davidson diagonalization with overlap

---- Real-time Memory Report at c_bands before calling an iterative solver
          1880 MiB given to the printing process from OS
             0 MiB allocation reported by mallinfo(arena+hblkhd)
         11891 MiB available memory on the node where the printing process lives
------------------
     ethr =  2.84E-11,  avg # of iterations =  2.0

     =================== HUBBARD OCCUPATIONS ===================
     ------------------------ ATOM    1 ------------------------
     Tr[ns(  1)] =   2.71226
     eigenvalues:
       0.343  0.459  0.554
     eigenvectors (columns):
      -0.998  0.006 -0.069
       0.005  1.000  0.001
      -0.069 -0.001  0.998
     occupation matrix ns (before diag.):
       0.344  0.001 -0.014
       0.001  0.459  0.000
      -0.014  0.000  0.553
     ------------------------ ATOM    2 ------------------------
     Tr[ns(  2)] =   3.43456
     eigenvalues:
       0.282  0.711  0.725
     eigenvectors (columns):
      -0.995  0.002  0.099
       0.001  1.000 -0.005
       0.099  0.005  0.995
     occupation matrix ns (before diag.):
       0.286  0.000  0.044
       0.000  0.711 -0.000
       0.044 -0.000  0.720
     ------------------------ ATOM    3 ------------------------
     Tr[ns(  3)] =   3.30605
     eigenvalues:
       0.474  0.479  0.700
     eigenvectors (columns):
       0.666 -0.005 -0.746
      -0.008 -1.000 -0.001
       0.746 -0.007  0.666
     occupation matrix ns (before diag.):
       0.600  0.000 -0.112
       0.000  0.479 -0.000
      -0.112 -0.000  0.574
     ------------------------ ATOM    4 ------------------------
     Tr[ns(  4)] =   3.38729
     eigenvalues:
       0.479  0.491  0.723
     eigenvectors (columns):
      -0.001  0.609 -0.793
      -1.000 -0.001 -0.000
      -0.001  0.793  0.609
     occupation matrix ns (before diag.):
       0.637  0.000 -0.112
       0.000  0.479 -0.000
      -0.112 -0.000  0.577
     ------------------------ ATOM    5 ------------------------
     Tr[ns(  5)] =   3.38729
     eigenvalues:
       0.479  0.491  0.723
     eigenvectors (columns):
      -0.001 -0.609  0.793
       1.000 -0.001 -0.000
       0.001  0.793  0.609
     occupation matrix ns (before diag.):
       0.637 -0.000  0.112
      -0.000  0.479 -0.000
       0.112 -0.000  0.577
     ------------------------ ATOM    6 ------------------------
     Tr[ns(  6)] =   3.30606
     eigenvalues:
       0.474  0.479  0.700
     eigenvectors (columns):
      -0.666 -0.005  0.746
      -0.008  1.000 -0.001
       0.746  0.007  0.666
     occupation matrix ns (before diag.):
       0.600 -0.000  0.112
      -0.000  0.479 -0.000
       0.112 -0.000  0.574
     ------------------------ ATOM    7 ------------------------
     Tr[ns(  7)] =   3.43456
     eigenvalues:
       0.282  0.711  0.725
     eigenvectors (columns):
       0.995  0.002 -0.099
       0.001 -1.000 -0.005
       0.099 -0.005  0.995
     occupation matrix ns (before diag.):
       0.286 -0.000 -0.044
      -0.000  0.711 -0.000
      -0.044 -0.000  0.720
     ------------------------ ATOM    8 ------------------------
     Tr[ns(  8)] =   2.71225
     eigenvalues:
       0.343  0.459  0.554
     eigenvectors (columns):
       0.998  0.006  0.069
       0.005 -1.000  0.001
      -0.069  0.001  0.998
     occupation matrix ns (before diag.):
       0.344 -0.001  0.014
      -0.001  0.459  0.000
       0.014  0.000  0.553

     Number of occupied Hubbard levels =   25.6803

     HUBBARD ENERGY =    0.8047  (Ry)

     Adding external electric field

     Computed dipole along edir(3) : 
        Elec. dipole          0.5281 Ry au,          1.3422 Debye
        Ion. dipole           0.6311 Ry au,          1.6040 Debye
        Dipole                8.4199 Ry au,         21.4013 Debye
        Dipole field          0.1030 Ry au, 

        Potential amp.       -3.8830 Ry
        Total length         18.8500 bohr


     total cpu time spent up to now is     6067.6 secs

     total energy              =    -436.76572378 Ry
     estimated scf accuracy    <       0.00000015 Ry

     iteration # 99     ecut=    60.00 Ry     beta= 0.20
     Davidson diagonalization with overlap

---- Real-time Memory Report at c_bands before calling an iterative solver
          1880 MiB given to the printing process from OS
             0 MiB allocation reported by mallinfo(arena+hblkhd)
         11890 MiB available memory on the node where the printing process lives
------------------
     ethr =  2.84E-11,  avg # of iterations =  1.0

     =================== HUBBARD OCCUPATIONS ===================
     ------------------------ ATOM    1 ------------------------
     Tr[ns(  1)] =   2.71228
     eigenvalues:
       0.343  0.459  0.554
     eigenvectors (columns):
      -0.998  0.006 -0.069
       0.006  1.000  0.001
      -0.069 -0.001  0.998
     occupation matrix ns (before diag.):
       0.344  0.001 -0.014
       0.001  0.459  0.000
      -0.014  0.000  0.553
     ------------------------ ATOM    2 ------------------------
     Tr[ns(  2)] =   3.43456
     eigenvalues:
       0.282  0.711  0.725
     eigenvectors (columns):
      -0.995  0.002  0.099
       0.001  1.000 -0.005
       0.099  0.005  0.995
     occupation matrix ns (before diag.):
       0.286  0.000  0.044
       0.000  0.711 -0.000
       0.044 -0.000  0.720
     ------------------------ ATOM    3 ------------------------
     Tr[ns(  3)] =   3.30605
     eigenvalues:
       0.474  0.479  0.700
     eigenvectors (columns):
       0.666 -0.005 -0.746
      -0.008 -1.000 -0.001
       0.746 -0.006  0.666
     occupation matrix ns (before diag.):
       0.600  0.000 -0.112
       0.000  0.479 -0.000
      -0.112 -0.000  0.574
     ------------------------ ATOM    4 ------------------------
     Tr[ns(  4)] =   3.38729
     eigenvalues:
       0.479  0.491  0.723
     eigenvectors (columns):
      -0.001  0.609 -0.793
      -1.000 -0.001 -0.000
      -0.001  0.793  0.609
     occupation matrix ns (before diag.):
       0.637  0.000 -0.112
       0.000  0.479 -0.000
      -0.112 -0.000  0.577
     ------------------------ ATOM    5 ------------------------
     Tr[ns(  5)] =   3.38729
     eigenvalues:
       0.479  0.491  0.723
     eigenvectors (columns):
      -0.001 -0.609  0.793
       1.000 -0.001 -0.000
       0.001  0.793  0.609
     occupation matrix ns (before diag.):
       0.637 -0.000  0.112
      -0.000  0.479 -0.000
       0.112 -0.000  0.577
     ------------------------ ATOM    6 ------------------------
     Tr[ns(  6)] =   3.30606
     eigenvalues:
       0.474  0.479  0.700
     eigenvectors (columns):
      -0.666 -0.005  0.746
      -0.008  1.000 -0.001
       0.746  0.006  0.666
     occupation matrix ns (before diag.):
       0.600 -0.000  0.112
      -0.000  0.479 -0.000
       0.112 -0.000  0.574
     ------------------------ ATOM    7 ------------------------
     Tr[ns(  7)] =   3.43455
     eigenvalues:
       0.282  0.711  0.725
     eigenvectors (columns):
       0.995  0.002 -0.099
       0.001 -1.000 -0.005
       0.099 -0.005  0.995
     occupation matrix ns (before diag.):
       0.286 -0.000 -0.044
      -0.000  0.711 -0.000
      -0.044 -0.000  0.720
     ------------------------ ATOM    8 ------------------------
     Tr[ns(  8)] =   2.71223
     eigenvalues:
       0.343  0.459  0.554
     eigenvectors (columns):
       0.998  0.006  0.069
       0.006 -1.000  0.001
      -0.069  0.001  0.998
     occupation matrix ns (before diag.):
       0.344 -0.001  0.014
      -0.001  0.459  0.000
       0.014  0.000  0.553

     Number of occupied Hubbard levels =   25.6803

     HUBBARD ENERGY =    0.8047  (Ry)

     Adding external electric field

     Computed dipole along edir(3) : 
        Elec. dipole          0.5281 Ry au,          1.3422 Debye
        Ion. dipole           0.6311 Ry au,          1.6040 Debye
        Dipole                8.4199 Ry au,         21.4013 Debye
        Dipole field          0.1030 Ry au, 

        Potential amp.       -3.8830 Ry
        Total length         18.8500 bohr


     total cpu time spent up to now is     6112.7 secs

     total energy              =    -436.76572376 Ry
     estimated scf accuracy    <       0.00000016 Ry

     iteration #100     ecut=    60.00 Ry     beta= 0.20
     Davidson diagonalization with overlap

---- Real-time Memory Report at c_bands before calling an iterative solver
          1880 MiB given to the printing process from OS
             0 MiB allocation reported by mallinfo(arena+hblkhd)
         11889 MiB available memory on the node where the printing process lives
------------------
     ethr =  2.84E-11,  avg # of iterations =  1.0

     =================== HUBBARD OCCUPATIONS ===================
     ------------------------ ATOM    1 ------------------------
     Tr[ns(  1)] =   2.71222
     eigenvalues:
       0.343  0.459  0.554
     eigenvectors (columns):
      -0.998  0.005 -0.069
       0.005  1.000  0.001
      -0.069 -0.001  0.998
     occupation matrix ns (before diag.):
       0.344  0.001 -0.014
       0.001  0.459  0.000
      -0.014  0.000  0.553
     ------------------------ ATOM    2 ------------------------
     Tr[ns(  2)] =   3.43455
     eigenvalues:
       0.282  0.711  0.725
     eigenvectors (columns):
      -0.995  0.002  0.099
       0.001  1.000 -0.005
       0.099  0.005  0.995
     occupation matrix ns (before diag.):
       0.286  0.000  0.044
       0.000  0.711 -0.000
       0.044 -0.000  0.720
     ------------------------ ATOM    3 ------------------------
     Tr[ns(  3)] =   3.30606
     eigenvalues:
       0.474  0.479  0.700
     eigenvectors (columns):
       0.666 -0.008 -0.746
      -0.013 -1.000 -0.001
       0.746 -0.010  0.666
     occupation matrix ns (before diag.):
       0.600  0.000 -0.112
       0.000  0.479 -0.000
      -0.112 -0.000  0.574
     ------------------------ ATOM    4 ------------------------
     Tr[ns(  4)] =   3.38729
     eigenvalues:
       0.479  0.491  0.723
     eigenvectors (columns):
      -0.002  0.609 -0.793
      -1.000 -0.003  0.000
      -0.002  0.793  0.609
     occupation matrix ns (before diag.):
       0.637 -0.000 -0.112
      -0.000  0.479 -0.000
      -0.112 -0.000  0.577
     ------------------------ ATOM    5 ------------------------
     Tr[ns(  5)] =   3.38729
     eigenvalues:
       0.479  0.491  0.723
     eigenvectors (columns):
      -0.002 -0.609  0.793
       1.000 -0.003  0.000
       0.002  0.793  0.609
     occupation matrix ns (before diag.):
       0.637  0.000  0.112
       0.000  0.479 -0.000
       0.112 -0.000  0.577
     ------------------------ ATOM    6 ------------------------
     Tr[ns(  6)] =   3.30605
     eigenvalues:
       0.474  0.479  0.700
     eigenvectors (columns):
      -0.666 -0.008  0.746
      -0.013  1.000 -0.001
       0.746  0.010  0.666
     occupation matrix ns (before diag.):
       0.600 -0.000  0.112
      -0.000  0.479 -0.000
       0.112 -0.000  0.574
     ------------------------ ATOM    7 ------------------------
     Tr[ns(  7)] =   3.43457
     eigenvalues:
       0.282  0.711  0.725
     eigenvectors (columns):
       0.995  0.002 -0.099
       0.001 -1.000 -0.005
       0.099 -0.005  0.995
     occupation matrix ns (before diag.):
       0.286 -0.000 -0.044
      -0.000  0.711 -0.000
      -0.044 -0.000  0.720
     ------------------------ ATOM    8 ------------------------
     Tr[ns(  8)] =   2.71229
     eigenvalues:
       0.343  0.459  0.554
     eigenvectors (columns):
       0.998  0.005  0.069
       0.005 -1.000  0.001
      -0.069  0.001  0.998
     occupation matrix ns (before diag.):
       0.344 -0.001  0.014
      -0.001  0.459  0.000
       0.014  0.000  0.553

     Number of occupied Hubbard levels =   25.6803

     HUBBARD ENERGY =    0.8047  (Ry)

     Adding external electric field

     Computed dipole along edir(3) : 
        Elec. dipole          0.5281 Ry au,          1.3422 Debye
        Ion. dipole           0.6311 Ry au,          1.6040 Debye
        Dipole                8.4199 Ry au,         21.4013 Debye
        Dipole field          0.1030 Ry au, 

        Potential amp.       -3.8830 Ry
        Total length         18.8500 bohr


     total cpu time spent up to now is     6160.1 secs

     total energy              =    -436.76572365 Ry
     estimated scf accuracy    <       0.00000013 Ry

     End of self-consistent calculation

     convergence NOT achieved after 100 iterations: stopping

     Writing config to output data dir /home/kravt/QE/qe-7.4.1/BP/Bulk/D = 0/tmp/bulk_bp.save/ :
     XML data file, charge density

     init_run     :    126.92s CPU     25.53s WALL (       1 calls)
     electrons    :  29733.17s CPU   6134.50s WALL (       1 calls)

     Called by init_run:
     wfcinit      :    124.78s CPU     23.00s WALL (       1 calls)
     wfcinit:atom :      1.77s CPU      0.35s WALL (     148 calls)
     wfcinit:wfcr :     92.85s CPU     17.49s WALL (     148 calls)
     potinit      :      1.03s CPU      1.13s WALL (       1 calls)
     hinit0       :      0.68s CPU      0.71s WALL (       1 calls)

     Called by electrons:
     c_bands      :  28571.69s CPU   5544.69s WALL (     100 calls)
     sum_band     :   1052.83s CPU    484.77s WALL (     100 calls)
     v_of_rho     :      7.08s CPU      7.38s WALL (     101 calls)
     v_h          :      0.30s CPU      0.30s WALL (     101 calls)
     v_xc         :      6.58s CPU      6.87s WALL (     101 calls)
     newd         :     36.84s CPU     32.55s WALL (     101 calls)
     PAW_pot      :     62.98s CPU     64.38s WALL (     101 calls)
     mix_rho      :      1.26s CPU      1.27s WALL (     100 calls)
     energy_dftd3 :      0.80s CPU      0.30s WALL (       1 calls)

     Called by c_bands:
     init_us_2    :    738.65s CPU    167.80s WALL (   29896 calls)
     cegterg      :  20706.11s CPU   3971.64s WALL (   14948 calls)

     Called by sum_band:
     sum_band:wei :     78.50s CPU     24.86s WALL (     100 calls)
     sum_band:loo :    808.89s CPU    405.05s WALL (     100 calls)
     sum_band:buf :     15.92s CPU      4.86s WALL (   14800 calls)
     sum_band:ini :    124.42s CPU     56.01s WALL (   14800 calls)
     sum_band:cal :    139.65s CPU     38.72s WALL (   14800 calls)
     sum_band:bec :      1.26s CPU      0.39s WALL (   14800 calls)
     addusdens    :    131.34s CPU     39.31s WALL (     100 calls)
                                        0.00s GPU  (     100 calls)
     addusd:skk   :      0.66s CPU      0.46s WALL (     100 calls)
                                        0.00s GPU  (     100 calls)

     Called by *egterg:
     cdiaghg      :    582.71s CPU    106.86s WALL (   49440 calls)
     cegterg:over :   1071.82s CPU    115.03s WALL (   34640 calls)
     cegterg:upda :    430.74s CPU     54.97s WALL (   34640 calls)
     cegterg:last :    961.59s CPU     84.34s WALL (   28197 calls)
     h_psi        :  15116.75s CPU   3254.92s WALL (   49736 calls)
     s_psi        :    848.80s CPU     78.90s WALL (   49884 calls)
     g_psi        :    508.78s CPU     79.67s WALL (   34640 calls)

     Called by h_psi:
     h_psi:calbec :    926.27s CPU    155.73s WALL (   49736 calls)
     vloc_psi     :  12286.24s CPU   2858.67s WALL (   49736 calls)
     add_vuspsi   :    882.47s CPU     93.08s WALL (   49736 calls)
     vhpsi        :    883.45s CPU    122.03s WALL (   49736 calls)

     General routines
     calbec       :   1536.32s CPU    252.26s WALL (  129220 calls)
     fft          :      2.55s CPU      2.70s WALL (    1313 calls)
     ffts         :      0.56s CPU      0.39s WALL (     201 calls)
     fftw         :   9822.26s CPU   2443.42s WALL ( 3631670 calls)
     interpolate  :      0.54s CPU      0.54s WALL (     101 calls)
     davcio       :      0.15s CPU      1.03s WALL (     314 calls)

     Parallel routines

     Hubbard U routines
     new_ns       :     33.45s CPU     15.18s WALL (     100 calls)
     vhpsi        :    883.45s CPU    122.03s WALL (   49736 calls)

     PAW routines
     PAW_pot      :     62.98s CPU     64.38s WALL (     101 calls)

     PWSCF        :      8h17m CPU      1h42m WALL


   This run was terminated on:  13:12:23   7Oct2025            

=------------------------------------------------------------------------------=
   JOB DONE.
=------------------------------------------------------------------------------=
