
     Program PWSCF v.7.4.1 starts on  8Oct2025 at 19:20:10 

     This program is part of the open-source Quantum ESPRESSO suite
     for quantum simulation of materials; please cite
         "P. Giannozzi et al., J. Phys.:Condens. Matter 21 395502 (2009);
         "P. Giannozzi et al., J. Phys.:Condens. Matter 29 465901 (2017);
         "P. Giannozzi et al., J. Chem. Phys. 152 154105 (2020);
          URL http://www.quantum-espresso.org", 
     in publications or presentations arising from this work. More details at
     http://www.quantum-espresso.org/quote

     Parallel version (MPI), running on     1 processors

     MPI processes distributed on     1 nodes
     12925 MiB available memory on the printing compute node when the environment starts

     Waiting for input...
     Reading input from standard input

     Current dimensions of program PWSCF are:
     Max number of different atomic species (ntypx) = 10
     Max number of k-points (npk) =  40000
     Max angular momentum in pseudopotentials (lmaxx) =  4

     File /home/kravt/QE/qe-7.4.1/BP/Bulk/D = 0/tmp/bulk_bp.update deleted, as requested

     File /home/kravt/QE/qe-7.4.1/BP/Bulk/D = 0/tmp/bulk_bp.bfgs deleted, as requested
     file P.pbe-n-kjpaw_psl.1.0.0.UPF: wavefunction(s)  3S 3P renormalized

     IMPORTANT: XC functional enforced from input :
     Exchange-correlation= PBE
                           (   1   4   3   4   0   0   0)
     Any further DFT definition will be discarded
     Please, verify this is what you really want

     Found identity + ( -0.5000  0.0000 -0.5000) symmetry
     This is a supercell, fractional translations are disabled

     Subspace diagonalization in iterative solution of the eigenvalue problem:
     a serial algorithm will be used


     G-vector sticks info
     --------------------
     sticks:   dense  smooth     PW     G-vecs:    dense   smooth      PW
     Sum        1975     987    291               181981    64383   10231

     Using Slab Decomposition



     bravais-lattice index     =            8
     lattice parameter (alat)  =       6.2620  a.u.
     unit-cell volume          =    1024.7560 (a.u.)^3
     number of atoms/cell      =            8
     number of atomic types    =            1
     number of electrons       =        40.00
     number of Kohn-Sham states=           40
     kinetic-energy cutoff     =      60.0000  Ry
     charge density cutoff     =     480.0000  Ry
     scf convergence threshold =      1.0E-07
     mixing beta               =       0.4000
     number of iterations used =            8  plain     mixing
     energy convergence thresh.=      1.0E-04
     force convergence thresh. =      1.0E-04
     press convergence thresh. =      5.0E-01
     Exchange-correlation= PBE
                           (   1   4   3   4   0   0   0)
     nstep                     =          100


     celldm(1)=   6.262000  celldm(2)=   1.319000  celldm(3)=   3.164000
     celldm(4)=   0.000000  celldm(5)=   0.000000  celldm(6)=   0.000000

     crystal axes: (cart. coord. in units of alat)
               a(1) = (   1.000000   0.000000   0.000000 )  
               a(2) = (   0.000000   1.319000   0.000000 )  
               a(3) = (   0.000000   0.000000   3.164000 )  

     reciprocal axes: (cart. coord. in units 2 pi/alat)
               b(1) = (  1.000000  0.000000  0.000000 )  
               b(2) = (  0.000000  0.758150  0.000000 )  
               b(3) = (  0.000000  0.000000  0.316056 )  


     PseudoPot. # 1 for P  read from file:
     /home/kravt/QE/qe-7.4.1/pseudo/P.pbe-n-kjpaw_psl.1.0.0.UPF
     MD5 check sum: 06b8cad1975795032ee26009bb7624c7
     Pseudo is Projector augmented-wave + core cor, Zval =  5.0
     Generated using &quot;atomic&quot; code by A. Dal Corso  v.6.3
     Shape of augmentation charge: PSQ
     Using radial grid of 1147 points,  6 beta functions with: 
                l(1) =   0
                l(2) =   0
                l(3) =   1
                l(4) =   1
                l(5) =   2
                l(6) =   2
     Q(r) pseudized with 0 coefficients 


     atomic species   valence    mass     pseudopotential
     P                 5.00    30.97400     P ( 1.00)

      4 Sym. Ops., with inversion, found


                                    s                        frac. trans.

      isym =  1     identity                                     

 cryst.   s( 1) = (     1          0          0      )
                  (     0          1          0      )
                  (     0          0          1      )

 cart.    s( 1) = (  1.0000000  0.0000000  0.0000000 )
                  (  0.0000000  1.0000000  0.0000000 )
                  (  0.0000000  0.0000000  1.0000000 )


      isym =  2     180 deg rotation - cart. axis [1,0,0]        

 cryst.   s( 2) = (     1          0          0      )
                  (     0         -1          0      )
                  (     0          0         -1      )

 cart.    s( 2) = (  1.0000000  0.0000000  0.0000000 )
                  (  0.0000000 -1.0000000  0.0000000 )
                  (  0.0000000  0.0000000 -1.0000000 )


      isym =  3     inversion                                    

 cryst.   s( 3) = (    -1          0          0      )
                  (     0         -1          0      )
                  (     0          0         -1      )

 cart.    s( 3) = ( -1.0000000  0.0000000  0.0000000 )
                  (  0.0000000 -1.0000000  0.0000000 )
                  (  0.0000000  0.0000000 -1.0000000 )


      isym =  4     inv. 180 deg rotation - cart. axis [1,0,0]   

 cryst.   s( 4) = (    -1          0          0      )
                  (     0          1          0      )
                  (     0          0          1      )

 cart.    s( 4) = ( -1.0000000  0.0000000  0.0000000 )
                  (  0.0000000  1.0000000  0.0000000 )
                  (  0.0000000  0.0000000  1.0000000 )


     point group C_2h (2/m) 
     there are  4 classes
     the character table:

       E     C2    i     s_h  
A_g    1.00  1.00  1.00  1.00
B_g    1.00 -1.00  1.00 -1.00
A_u    1.00  1.00 -1.00 -1.00
B_u    1.00 -1.00 -1.00  1.00

     the symmetry operations in each class and the name of the first element:

     E        1
          identity                                               
     C2       2
          180 deg rotation - cart. axis [1,0,0]                  
     i        3
          inversion                                              
     s_h      4
          inv. 180 deg rotation - cart. axis [1,0,0]             

   Cartesian axes

     site n.     atom                  positions (alat units)
         1        P      tau(   1) = (   0.0000000   0.1187100   0.3100720  )
         2        P      tau(   2) = (   0.0000000   1.2002900   2.8539280  )
         3        P      tau(   3) = (   0.0000000   0.7782100   1.2719280  )
         4        P      tau(   4) = (   0.0000000   0.5407900   1.8920720  )
         5        P      tau(   5) = (   0.5000000   0.1187100   1.8920720  )
         6        P      tau(   6) = (   0.5000000   1.2002900   1.2719280  )
         7        P      tau(   7) = (   0.5000000   0.7782100   2.8539280  )
         8        P      tau(   8) = (   0.5000000   0.5407900   0.3100720  )

     --------------------------------------------
     DFT-D3 Dispersion Correction (3-body terms):
     --------------------------------------------
       Reference C6 values for interpolation: 

         atom   Coordination number   C6
         P          0.000           383.38
         P          0.995           361.25
         P          2.010           351.11
         P          2.986           303.38

       Values used:

         atom   Coordination number  R0_AB[au]  C6      C8
         P          4.024            3.309    303.38  16807.03
         P          4.024            3.309    303.38  16807.03
         P          4.024            3.309    303.38  16807.03
         P          4.024            3.309    303.38  16807.03
         P          4.024            3.309    303.38  16807.03
         P          4.024            3.309    303.38  16807.03
         P          4.024            3.309    303.38  16807.03
         P          4.024            3.309    303.38  16807.03

         Molecular C6 ( Ry / a.u.^6 ) =     19416.16


   Crystallographic axes

     site n.     atom                  positions (cryst. coord.)
         1        P      tau(   1) = (  0.0000000  0.0900000  0.0980000  )
         2        P      tau(   2) = (  0.0000000  0.9100000  0.9020000  )
         3        P      tau(   3) = (  0.0000000  0.5900000  0.4020000  )
         4        P      tau(   4) = (  0.0000000  0.4100000  0.5980000  )
         5        P      tau(   5) = (  0.5000000  0.0900000  0.5980000  )
         6        P      tau(   6) = (  0.5000000  0.9100000  0.4020000  )
         7        P      tau(   7) = (  0.5000000  0.5900000  0.9020000  )
         8        P      tau(   8) = (  0.5000000  0.4100000  0.0980000  )

     number of k points=   182  Marzari-Vanderbilt smearing, width (Ry)=  0.0100
                       cart. coord. in units 2pi/alat
        k(    1) = (   0.0000000   0.0000000   0.0000000), wk =   0.0034722
        k(    2) = (   0.0000000   0.0000000   0.0790139), wk =   0.0069444
        k(    3) = (   0.0000000   0.0000000  -0.1580278), wk =   0.0034722
        k(    4) = (   0.0000000   0.0631792   0.0000000), wk =   0.0069444
        k(    5) = (   0.0000000   0.0631792   0.0790139), wk =   0.0069444
        k(    6) = (   0.0000000   0.0631792  -0.1580278), wk =   0.0069444
        k(    7) = (   0.0000000   0.1263584   0.0000000), wk =   0.0069444
        k(    8) = (   0.0000000   0.1263584   0.0790139), wk =   0.0069444
        k(    9) = (   0.0000000   0.1263584  -0.1580278), wk =   0.0069444
        k(   10) = (   0.0000000   0.1895375   0.0000000), wk =   0.0069444
        k(   11) = (   0.0000000   0.1895375   0.0790139), wk =   0.0069444
        k(   12) = (   0.0000000   0.1895375  -0.1580278), wk =   0.0069444
        k(   13) = (   0.0000000   0.2527167   0.0000000), wk =   0.0069444
        k(   14) = (   0.0000000   0.2527167   0.0790139), wk =   0.0069444
        k(   15) = (   0.0000000   0.2527167  -0.1580278), wk =   0.0069444
        k(   16) = (   0.0000000   0.3158959   0.0000000), wk =   0.0069444
        k(   17) = (   0.0000000   0.3158959   0.0790139), wk =   0.0069444
        k(   18) = (   0.0000000   0.3158959  -0.1580278), wk =   0.0069444
        k(   19) = (   0.0000000  -0.3790751   0.0000000), wk =   0.0034722
        k(   20) = (   0.0000000  -0.3790751   0.0790139), wk =   0.0069444
        k(   21) = (   0.0000000  -0.3790751  -0.1580278), wk =   0.0034722
        k(   22) = (   0.0833333   0.0000000   0.0000000), wk =   0.0069444
        k(   23) = (   0.0833333   0.0000000   0.0790139), wk =   0.0138889
        k(   24) = (   0.0833333   0.0000000  -0.1580278), wk =   0.0069444
        k(   25) = (   0.0833333   0.0631792   0.0000000), wk =   0.0138889
        k(   26) = (   0.0833333   0.0631792   0.0790139), wk =   0.0138889
        k(   27) = (   0.0833333   0.0631792  -0.1580278), wk =   0.0138889
        k(   28) = (   0.0833333   0.1263584   0.0000000), wk =   0.0138889
        k(   29) = (   0.0833333   0.1263584   0.0790139), wk =   0.0138889
        k(   30) = (   0.0833333   0.1263584  -0.1580278), wk =   0.0138889
        k(   31) = (   0.0833333   0.1895375   0.0000000), wk =   0.0138889
        k(   32) = (   0.0833333   0.1895375   0.0790139), wk =   0.0138889
        k(   33) = (   0.0833333   0.1895375  -0.1580278), wk =   0.0138889
        k(   34) = (   0.0833333   0.2527167   0.0000000), wk =   0.0138889
        k(   35) = (   0.0833333   0.2527167   0.0790139), wk =   0.0138889
        k(   36) = (   0.0833333   0.2527167  -0.1580278), wk =   0.0138889
        k(   37) = (   0.0833333   0.3158959   0.0000000), wk =   0.0138889
        k(   38) = (   0.0833333   0.3158959   0.0790139), wk =   0.0138889
        k(   39) = (   0.0833333   0.3158959  -0.1580278), wk =   0.0138889
        k(   40) = (   0.0833333  -0.3790751   0.0000000), wk =   0.0069444
        k(   41) = (   0.0833333  -0.3790751   0.0790139), wk =   0.0138889
        k(   42) = (   0.0833333  -0.3790751  -0.1580278), wk =   0.0069444
        k(   43) = (   0.1666667   0.0000000   0.0000000), wk =   0.0069444
        k(   44) = (   0.1666667   0.0000000   0.0790139), wk =   0.0138889
        k(   45) = (   0.1666667   0.0000000  -0.1580278), wk =   0.0069444
        k(   46) = (   0.1666667   0.0631792   0.0000000), wk =   0.0138889
        k(   47) = (   0.1666667   0.0631792   0.0790139), wk =   0.0138889
        k(   48) = (   0.1666667   0.0631792  -0.1580278), wk =   0.0138889
        k(   49) = (   0.1666667   0.1263584   0.0000000), wk =   0.0138889
        k(   50) = (   0.1666667   0.1263584   0.0790139), wk =   0.0138889
        k(   51) = (   0.1666667   0.1263584  -0.1580278), wk =   0.0138889
        k(   52) = (   0.1666667   0.1895375   0.0000000), wk =   0.0138889
        k(   53) = (   0.1666667   0.1895375   0.0790139), wk =   0.0138889
        k(   54) = (   0.1666667   0.1895375  -0.1580278), wk =   0.0138889
        k(   55) = (   0.1666667   0.2527167   0.0000000), wk =   0.0138889
        k(   56) = (   0.1666667   0.2527167   0.0790139), wk =   0.0138889
        k(   57) = (   0.1666667   0.2527167  -0.1580278), wk =   0.0138889
        k(   58) = (   0.1666667   0.3158959   0.0000000), wk =   0.0138889
        k(   59) = (   0.1666667   0.3158959   0.0790139), wk =   0.0138889
        k(   60) = (   0.1666667   0.3158959  -0.1580278), wk =   0.0138889
        k(   61) = (   0.1666667  -0.3790751   0.0000000), wk =   0.0069444
        k(   62) = (   0.1666667  -0.3790751   0.0790139), wk =   0.0138889
        k(   63) = (   0.1666667  -0.3790751  -0.1580278), wk =   0.0069444
        k(   64) = (   0.2500000   0.0000000   0.0000000), wk =   0.0069444
        k(   65) = (   0.2500000   0.0000000   0.0790139), wk =   0.0138889
        k(   66) = (   0.2500000   0.0000000  -0.1580278), wk =   0.0069444
        k(   67) = (   0.2500000   0.0631792   0.0000000), wk =   0.0138889
        k(   68) = (   0.2500000   0.0631792   0.0790139), wk =   0.0138889
        k(   69) = (   0.2500000   0.0631792  -0.1580278), wk =   0.0138889
        k(   70) = (   0.2500000   0.1263584   0.0000000), wk =   0.0138889
        k(   71) = (   0.2500000   0.1263584   0.0790139), wk =   0.0138889
        k(   72) = (   0.2500000   0.1263584  -0.1580278), wk =   0.0138889
        k(   73) = (   0.2500000   0.1895375   0.0000000), wk =   0.0138889
        k(   74) = (   0.2500000   0.1895375   0.0790139), wk =   0.0138889
        k(   75) = (   0.2500000   0.1895375  -0.1580278), wk =   0.0138889
        k(   76) = (   0.2500000   0.2527167   0.0000000), wk =   0.0138889
        k(   77) = (   0.2500000   0.2527167   0.0790139), wk =   0.0138889
        k(   78) = (   0.2500000   0.2527167  -0.1580278), wk =   0.0138889
        k(   79) = (   0.2500000   0.3158959   0.0000000), wk =   0.0138889
        k(   80) = (   0.2500000   0.3158959   0.0790139), wk =   0.0138889
        k(   81) = (   0.2500000   0.3158959  -0.1580278), wk =   0.0138889
        k(   82) = (   0.2500000  -0.3790751   0.0000000), wk =   0.0069444
        k(   83) = (   0.2500000  -0.3790751   0.0790139), wk =   0.0138889
        k(   84) = (   0.2500000  -0.3790751  -0.1580278), wk =   0.0069444
        k(   85) = (   0.3333333   0.0000000   0.0000000), wk =   0.0069444
        k(   86) = (   0.3333333   0.0000000   0.0790139), wk =   0.0138889
        k(   87) = (   0.3333333   0.0000000  -0.1580278), wk =   0.0069444
        k(   88) = (   0.3333333   0.0631792   0.0000000), wk =   0.0138889
        k(   89) = (   0.3333333   0.0631792   0.0790139), wk =   0.0138889
        k(   90) = (   0.3333333   0.0631792  -0.1580278), wk =   0.0138889
        k(   91) = (   0.3333333   0.1263584   0.0000000), wk =   0.0138889
        k(   92) = (   0.3333333   0.1263584   0.0790139), wk =   0.0138889
        k(   93) = (   0.3333333   0.1263584  -0.1580278), wk =   0.0138889
        k(   94) = (   0.3333333   0.1895375   0.0000000), wk =   0.0138889
        k(   95) = (   0.3333333   0.1895375   0.0790139), wk =   0.0138889
        k(   96) = (   0.3333333   0.1895375  -0.1580278), wk =   0.0138889
        k(   97) = (   0.3333333   0.2527167   0.0000000), wk =   0.0138889
        k(   98) = (   0.3333333   0.2527167   0.0790139), wk =   0.0138889
        k(   99) = (   0.3333333   0.2527167  -0.1580278), wk =   0.0138889
        k(  100) = (   0.3333333   0.3158959   0.0000000), wk =   0.0138889
        k(  101) = (   0.3333333   0.3158959   0.0790139), wk =   0.0138889
        k(  102) = (   0.3333333   0.3158959  -0.1580278), wk =   0.0138889
        k(  103) = (   0.3333333  -0.3790751   0.0000000), wk =   0.0069444
        k(  104) = (   0.3333333  -0.3790751   0.0790139), wk =   0.0138889
        k(  105) = (   0.3333333  -0.3790751  -0.1580278), wk =   0.0069444
        k(  106) = (   0.4166667   0.0000000   0.0000000), wk =   0.0069444
        k(  107) = (   0.4166667   0.0000000   0.0790139), wk =   0.0138889
        k(  108) = (   0.4166667   0.0000000  -0.1580278), wk =   0.0069444
        k(  109) = (   0.4166667   0.0631792   0.0000000), wk =   0.0138889
        k(  110) = (   0.4166667   0.0631792   0.0790139), wk =   0.0138889
        k(  111) = (   0.4166667   0.0631792  -0.1580278), wk =   0.0138889
        k(  112) = (   0.4166667   0.1263584   0.0000000), wk =   0.0138889
        k(  113) = (   0.4166667   0.1263584   0.0790139), wk =   0.0138889
        k(  114) = (   0.4166667   0.1263584  -0.1580278), wk =   0.0138889
        k(  115) = (   0.4166667   0.1895375   0.0000000), wk =   0.0138889
        k(  116) = (   0.4166667   0.1895375   0.0790139), wk =   0.0138889
        k(  117) = (   0.4166667   0.1895375  -0.1580278), wk =   0.0138889
        k(  118) = (   0.4166667   0.2527167   0.0000000), wk =   0.0138889
        k(  119) = (   0.4166667   0.2527167   0.0790139), wk =   0.0138889
        k(  120) = (   0.4166667   0.2527167  -0.1580278), wk =   0.0138889
        k(  121) = (   0.4166667   0.3158959   0.0000000), wk =   0.0138889
        k(  122) = (   0.4166667   0.3158959   0.0790139), wk =   0.0138889
        k(  123) = (   0.4166667   0.3158959  -0.1580278), wk =   0.0138889
        k(  124) = (   0.4166667  -0.3790751   0.0000000), wk =   0.0069444
        k(  125) = (   0.4166667  -0.3790751   0.0790139), wk =   0.0138889
        k(  126) = (   0.4166667  -0.3790751  -0.1580278), wk =   0.0069444
        k(  127) = (  -0.5000000   0.0000000   0.0000000), wk =   0.0034722
        k(  128) = (  -0.5000000   0.0000000   0.0790139), wk =   0.0069444
        k(  129) = (  -0.5000000   0.0000000  -0.1580278), wk =   0.0034722
        k(  130) = (  -0.5000000   0.0631792   0.0000000), wk =   0.0069444
        k(  131) = (  -0.5000000   0.0631792   0.0790139), wk =   0.0069444
        k(  132) = (  -0.5000000   0.0631792  -0.1580278), wk =   0.0069444
        k(  133) = (  -0.5000000   0.1263584   0.0000000), wk =   0.0069444
        k(  134) = (  -0.5000000   0.1263584   0.0790139), wk =   0.0069444
        k(  135) = (  -0.5000000   0.1263584  -0.1580278), wk =   0.0069444
        k(  136) = (  -0.5000000   0.1895375   0.0000000), wk =   0.0069444
        k(  137) = (  -0.5000000   0.1895375   0.0790139), wk =   0.0069444
        k(  138) = (  -0.5000000   0.1895375  -0.1580278), wk =   0.0069444
        k(  139) = (  -0.5000000   0.2527167   0.0000000), wk =   0.0069444
        k(  140) = (  -0.5000000   0.2527167   0.0790139), wk =   0.0069444
        k(  141) = (  -0.5000000   0.2527167  -0.1580278), wk =   0.0069444
        k(  142) = (  -0.5000000   0.3158959   0.0000000), wk =   0.0069444
        k(  143) = (  -0.5000000   0.3158959   0.0790139), wk =   0.0069444
        k(  144) = (  -0.5000000   0.3158959  -0.1580278), wk =   0.0069444
        k(  145) = (  -0.5000000  -0.3790751   0.0000000), wk =   0.0034722
        k(  146) = (  -0.5000000  -0.3790751   0.0790139), wk =   0.0069444
        k(  147) = (  -0.5000000  -0.3790751  -0.1580278), wk =   0.0034722
        k(  148) = (   0.0000000   0.0631792  -0.0790139), wk =   0.0069444
        k(  149) = (   0.0000000   0.1263584  -0.0790139), wk =   0.0069444
        k(  150) = (   0.0000000   0.1895375  -0.0790139), wk =   0.0069444
        k(  151) = (   0.0000000   0.2527167  -0.0790139), wk =   0.0069444
        k(  152) = (   0.0000000   0.3158959  -0.0790139), wk =   0.0069444
        k(  153) = (  -0.0833333   0.0631792  -0.0790139), wk =   0.0138889
        k(  154) = (  -0.0833333   0.1263584  -0.0790139), wk =   0.0138889
        k(  155) = (  -0.0833333   0.1895375  -0.0790139), wk =   0.0138889
        k(  156) = (  -0.0833333   0.2527167  -0.0790139), wk =   0.0138889
        k(  157) = (  -0.0833333   0.3158959  -0.0790139), wk =   0.0138889
        k(  158) = (  -0.1666667   0.0631792  -0.0790139), wk =   0.0138889
        k(  159) = (  -0.1666667   0.1263584  -0.0790139), wk =   0.0138889
        k(  160) = (  -0.1666667   0.1895375  -0.0790139), wk =   0.0138889
        k(  161) = (  -0.1666667   0.2527167  -0.0790139), wk =   0.0138889
        k(  162) = (  -0.1666667   0.3158959  -0.0790139), wk =   0.0138889
        k(  163) = (  -0.2500000   0.0631792  -0.0790139), wk =   0.0138889
        k(  164) = (  -0.2500000   0.1263584  -0.0790139), wk =   0.0138889
        k(  165) = (  -0.2500000   0.1895375  -0.0790139), wk =   0.0138889
        k(  166) = (  -0.2500000   0.2527167  -0.0790139), wk =   0.0138889
        k(  167) = (  -0.2500000   0.3158959  -0.0790139), wk =   0.0138889
        k(  168) = (  -0.3333333   0.0631792  -0.0790139), wk =   0.0138889
        k(  169) = (  -0.3333333   0.1263584  -0.0790139), wk =   0.0138889
        k(  170) = (  -0.3333333   0.1895375  -0.0790139), wk =   0.0138889
        k(  171) = (  -0.3333333   0.2527167  -0.0790139), wk =   0.0138889
        k(  172) = (  -0.3333333   0.3158959  -0.0790139), wk =   0.0138889
        k(  173) = (  -0.4166667   0.0631792  -0.0790139), wk =   0.0138889
        k(  174) = (  -0.4166667   0.1263584  -0.0790139), wk =   0.0138889
        k(  175) = (  -0.4166667   0.1895375  -0.0790139), wk =   0.0138889
        k(  176) = (  -0.4166667   0.2527167  -0.0790139), wk =   0.0138889
        k(  177) = (  -0.4166667   0.3158959  -0.0790139), wk =   0.0138889
        k(  178) = (   0.5000000   0.0631792  -0.0790139), wk =   0.0069444
        k(  179) = (   0.5000000   0.1263584  -0.0790139), wk =   0.0069444
        k(  180) = (   0.5000000   0.1895375  -0.0790139), wk =   0.0069444
        k(  181) = (   0.5000000   0.2527167  -0.0790139), wk =   0.0069444
        k(  182) = (   0.5000000   0.3158959  -0.0790139), wk =   0.0069444

                       cryst. coord.
        k(    1) = (   0.0000000   0.0000000   0.0000000), wk =   0.0034722
        k(    2) = (   0.0000000   0.0000000   0.2500000), wk =   0.0069444
        k(    3) = (   0.0000000   0.0000000  -0.5000000), wk =   0.0034722
        k(    4) = (   0.0000000   0.0833333   0.0000000), wk =   0.0069444
        k(    5) = (   0.0000000   0.0833333   0.2500000), wk =   0.0069444
        k(    6) = (   0.0000000   0.0833333  -0.5000000), wk =   0.0069444
        k(    7) = (   0.0000000   0.1666667   0.0000000), wk =   0.0069444
        k(    8) = (   0.0000000   0.1666667   0.2500000), wk =   0.0069444
        k(    9) = (   0.0000000   0.1666667  -0.5000000), wk =   0.0069444
        k(   10) = (   0.0000000   0.2500000   0.0000000), wk =   0.0069444
        k(   11) = (   0.0000000   0.2500000   0.2500000), wk =   0.0069444
        k(   12) = (   0.0000000   0.2500000  -0.5000000), wk =   0.0069444
        k(   13) = (   0.0000000   0.3333333   0.0000000), wk =   0.0069444
        k(   14) = (   0.0000000   0.3333333   0.2500000), wk =   0.0069444
        k(   15) = (   0.0000000   0.3333333  -0.5000000), wk =   0.0069444
        k(   16) = (   0.0000000   0.4166667   0.0000000), wk =   0.0069444
        k(   17) = (   0.0000000   0.4166667   0.2500000), wk =   0.0069444
        k(   18) = (   0.0000000   0.4166667  -0.5000000), wk =   0.0069444
        k(   19) = (   0.0000000  -0.5000000   0.0000000), wk =   0.0034722
        k(   20) = (   0.0000000  -0.5000000   0.2500000), wk =   0.0069444
        k(   21) = (   0.0000000  -0.5000000  -0.5000000), wk =   0.0034722
        k(   22) = (   0.0833333   0.0000000   0.0000000), wk =   0.0069444
        k(   23) = (   0.0833333   0.0000000   0.2500000), wk =   0.0138889
        k(   24) = (   0.0833333   0.0000000  -0.5000000), wk =   0.0069444
        k(   25) = (   0.0833333   0.0833333   0.0000000), wk =   0.0138889
        k(   26) = (   0.0833333   0.0833333   0.2500000), wk =   0.0138889
        k(   27) = (   0.0833333   0.0833333  -0.5000000), wk =   0.0138889
        k(   28) = (   0.0833333   0.1666667   0.0000000), wk =   0.0138889
        k(   29) = (   0.0833333   0.1666667   0.2500000), wk =   0.0138889
        k(   30) = (   0.0833333   0.1666667  -0.5000000), wk =   0.0138889
        k(   31) = (   0.0833333   0.2500000   0.0000000), wk =   0.0138889
        k(   32) = (   0.0833333   0.2500000   0.2500000), wk =   0.0138889
        k(   33) = (   0.0833333   0.2500000  -0.5000000), wk =   0.0138889
        k(   34) = (   0.0833333   0.3333333   0.0000000), wk =   0.0138889
        k(   35) = (   0.0833333   0.3333333   0.2500000), wk =   0.0138889
        k(   36) = (   0.0833333   0.3333333  -0.5000000), wk =   0.0138889
        k(   37) = (   0.0833333   0.4166667   0.0000000), wk =   0.0138889
        k(   38) = (   0.0833333   0.4166667   0.2500000), wk =   0.0138889
        k(   39) = (   0.0833333   0.4166667  -0.5000000), wk =   0.0138889
        k(   40) = (   0.0833333  -0.5000000   0.0000000), wk =   0.0069444
        k(   41) = (   0.0833333  -0.5000000   0.2500000), wk =   0.0138889
        k(   42) = (   0.0833333  -0.5000000  -0.5000000), wk =   0.0069444
        k(   43) = (   0.1666667   0.0000000   0.0000000), wk =   0.0069444
        k(   44) = (   0.1666667   0.0000000   0.2500000), wk =   0.0138889
        k(   45) = (   0.1666667   0.0000000  -0.5000000), wk =   0.0069444
        k(   46) = (   0.1666667   0.0833333   0.0000000), wk =   0.0138889
        k(   47) = (   0.1666667   0.0833333   0.2500000), wk =   0.0138889
        k(   48) = (   0.1666667   0.0833333  -0.5000000), wk =   0.0138889
        k(   49) = (   0.1666667   0.1666667   0.0000000), wk =   0.0138889
        k(   50) = (   0.1666667   0.1666667   0.2500000), wk =   0.0138889
        k(   51) = (   0.1666667   0.1666667  -0.5000000), wk =   0.0138889
        k(   52) = (   0.1666667   0.2500000   0.0000000), wk =   0.0138889
        k(   53) = (   0.1666667   0.2500000   0.2500000), wk =   0.0138889
        k(   54) = (   0.1666667   0.2500000  -0.5000000), wk =   0.0138889
        k(   55) = (   0.1666667   0.3333333   0.0000000), wk =   0.0138889
        k(   56) = (   0.1666667   0.3333333   0.2500000), wk =   0.0138889
        k(   57) = (   0.1666667   0.3333333  -0.5000000), wk =   0.0138889
        k(   58) = (   0.1666667   0.4166667   0.0000000), wk =   0.0138889
        k(   59) = (   0.1666667   0.4166667   0.2500000), wk =   0.0138889
        k(   60) = (   0.1666667   0.4166667  -0.5000000), wk =   0.0138889
        k(   61) = (   0.1666667  -0.5000000   0.0000000), wk =   0.0069444
        k(   62) = (   0.1666667  -0.5000000   0.2500000), wk =   0.0138889
        k(   63) = (   0.1666667  -0.5000000  -0.5000000), wk =   0.0069444
        k(   64) = (   0.2500000   0.0000000   0.0000000), wk =   0.0069444
        k(   65) = (   0.2500000   0.0000000   0.2500000), wk =   0.0138889
        k(   66) = (   0.2500000   0.0000000  -0.5000000), wk =   0.0069444
        k(   67) = (   0.2500000   0.0833333   0.0000000), wk =   0.0138889
        k(   68) = (   0.2500000   0.0833333   0.2500000), wk =   0.0138889
        k(   69) = (   0.2500000   0.0833333  -0.5000000), wk =   0.0138889
        k(   70) = (   0.2500000   0.1666667   0.0000000), wk =   0.0138889
        k(   71) = (   0.2500000   0.1666667   0.2500000), wk =   0.0138889
        k(   72) = (   0.2500000   0.1666667  -0.5000000), wk =   0.0138889
        k(   73) = (   0.2500000   0.2500000   0.0000000), wk =   0.0138889
        k(   74) = (   0.2500000   0.2500000   0.2500000), wk =   0.0138889
        k(   75) = (   0.2500000   0.2500000  -0.5000000), wk =   0.0138889
        k(   76) = (   0.2500000   0.3333333   0.0000000), wk =   0.0138889
        k(   77) = (   0.2500000   0.3333333   0.2500000), wk =   0.0138889
        k(   78) = (   0.2500000   0.3333333  -0.5000000), wk =   0.0138889
        k(   79) = (   0.2500000   0.4166667   0.0000000), wk =   0.0138889
        k(   80) = (   0.2500000   0.4166667   0.2500000), wk =   0.0138889
        k(   81) = (   0.2500000   0.4166667  -0.5000000), wk =   0.0138889
        k(   82) = (   0.2500000  -0.5000000   0.0000000), wk =   0.0069444
        k(   83) = (   0.2500000  -0.5000000   0.2500000), wk =   0.0138889
        k(   84) = (   0.2500000  -0.5000000  -0.5000000), wk =   0.0069444
        k(   85) = (   0.3333333   0.0000000   0.0000000), wk =   0.0069444
        k(   86) = (   0.3333333   0.0000000   0.2500000), wk =   0.0138889
        k(   87) = (   0.3333333   0.0000000  -0.5000000), wk =   0.0069444
        k(   88) = (   0.3333333   0.0833333   0.0000000), wk =   0.0138889
        k(   89) = (   0.3333333   0.0833333   0.2500000), wk =   0.0138889
        k(   90) = (   0.3333333   0.0833333  -0.5000000), wk =   0.0138889
        k(   91) = (   0.3333333   0.1666667   0.0000000), wk =   0.0138889
        k(   92) = (   0.3333333   0.1666667   0.2500000), wk =   0.0138889
        k(   93) = (   0.3333333   0.1666667  -0.5000000), wk =   0.0138889
        k(   94) = (   0.3333333   0.2500000   0.0000000), wk =   0.0138889
        k(   95) = (   0.3333333   0.2500000   0.2500000), wk =   0.0138889
        k(   96) = (   0.3333333   0.2500000  -0.5000000), wk =   0.0138889
        k(   97) = (   0.3333333   0.3333333   0.0000000), wk =   0.0138889
        k(   98) = (   0.3333333   0.3333333   0.2500000), wk =   0.0138889
        k(   99) = (   0.3333333   0.3333333  -0.5000000), wk =   0.0138889
        k(  100) = (   0.3333333   0.4166667   0.0000000), wk =   0.0138889
        k(  101) = (   0.3333333   0.4166667   0.2500000), wk =   0.0138889
        k(  102) = (   0.3333333   0.4166667  -0.5000000), wk =   0.0138889
        k(  103) = (   0.3333333  -0.5000000   0.0000000), wk =   0.0069444
        k(  104) = (   0.3333333  -0.5000000   0.2500000), wk =   0.0138889
        k(  105) = (   0.3333333  -0.5000000  -0.5000000), wk =   0.0069444
        k(  106) = (   0.4166667   0.0000000   0.0000000), wk =   0.0069444
        k(  107) = (   0.4166667   0.0000000   0.2500000), wk =   0.0138889
        k(  108) = (   0.4166667   0.0000000  -0.5000000), wk =   0.0069444
        k(  109) = (   0.4166667   0.0833333   0.0000000), wk =   0.0138889
        k(  110) = (   0.4166667   0.0833333   0.2500000), wk =   0.0138889
        k(  111) = (   0.4166667   0.0833333  -0.5000000), wk =   0.0138889
        k(  112) = (   0.4166667   0.1666667   0.0000000), wk =   0.0138889
        k(  113) = (   0.4166667   0.1666667   0.2500000), wk =   0.0138889
        k(  114) = (   0.4166667   0.1666667  -0.5000000), wk =   0.0138889
        k(  115) = (   0.4166667   0.2500000   0.0000000), wk =   0.0138889
        k(  116) = (   0.4166667   0.2500000   0.2500000), wk =   0.0138889
        k(  117) = (   0.4166667   0.2500000  -0.5000000), wk =   0.0138889
        k(  118) = (   0.4166667   0.3333333   0.0000000), wk =   0.0138889
        k(  119) = (   0.4166667   0.3333333   0.2500000), wk =   0.0138889
        k(  120) = (   0.4166667   0.3333333  -0.5000000), wk =   0.0138889
        k(  121) = (   0.4166667   0.4166667   0.0000000), wk =   0.0138889
        k(  122) = (   0.4166667   0.4166667   0.2500000), wk =   0.0138889
        k(  123) = (   0.4166667   0.4166667  -0.5000000), wk =   0.0138889
        k(  124) = (   0.4166667  -0.5000000   0.0000000), wk =   0.0069444
        k(  125) = (   0.4166667  -0.5000000   0.2500000), wk =   0.0138889
        k(  126) = (   0.4166667  -0.5000000  -0.5000000), wk =   0.0069444
        k(  127) = (  -0.5000000   0.0000000   0.0000000), wk =   0.0034722
        k(  128) = (  -0.5000000   0.0000000   0.2500000), wk =   0.0069444
        k(  129) = (  -0.5000000   0.0000000  -0.5000000), wk =   0.0034722
        k(  130) = (  -0.5000000   0.0833333   0.0000000), wk =   0.0069444
        k(  131) = (  -0.5000000   0.0833333   0.2500000), wk =   0.0069444
        k(  132) = (  -0.5000000   0.0833333  -0.5000000), wk =   0.0069444
        k(  133) = (  -0.5000000   0.1666667   0.0000000), wk =   0.0069444
        k(  134) = (  -0.5000000   0.1666667   0.2500000), wk =   0.0069444
        k(  135) = (  -0.5000000   0.1666667  -0.5000000), wk =   0.0069444
        k(  136) = (  -0.5000000   0.2500000   0.0000000), wk =   0.0069444
        k(  137) = (  -0.5000000   0.2500000   0.2500000), wk =   0.0069444
        k(  138) = (  -0.5000000   0.2500000  -0.5000000), wk =   0.0069444
        k(  139) = (  -0.5000000   0.3333333   0.0000000), wk =   0.0069444
        k(  140) = (  -0.5000000   0.3333333   0.2500000), wk =   0.0069444
        k(  141) = (  -0.5000000   0.3333333  -0.5000000), wk =   0.0069444
        k(  142) = (  -0.5000000   0.4166667   0.0000000), wk =   0.0069444
        k(  143) = (  -0.5000000   0.4166667   0.2500000), wk =   0.0069444
        k(  144) = (  -0.5000000   0.4166667  -0.5000000), wk =   0.0069444
        k(  145) = (  -0.5000000  -0.5000000   0.0000000), wk =   0.0034722
        k(  146) = (  -0.5000000  -0.5000000   0.2500000), wk =   0.0069444
        k(  147) = (  -0.5000000  -0.5000000  -0.5000000), wk =   0.0034722
        k(  148) = (   0.0000000   0.0833333  -0.2500000), wk =   0.0069444
        k(  149) = (   0.0000000   0.1666667  -0.2500000), wk =   0.0069444
        k(  150) = (   0.0000000   0.2500000  -0.2500000), wk =   0.0069444
        k(  151) = (   0.0000000   0.3333333  -0.2500000), wk =   0.0069444
        k(  152) = (   0.0000000   0.4166667  -0.2500000), wk =   0.0069444
        k(  153) = (  -0.0833333   0.0833333  -0.2500000), wk =   0.0138889
        k(  154) = (  -0.0833333   0.1666667  -0.2500000), wk =   0.0138889
        k(  155) = (  -0.0833333   0.2500000  -0.2500000), wk =   0.0138889
        k(  156) = (  -0.0833333   0.3333333  -0.2500000), wk =   0.0138889
        k(  157) = (  -0.0833333   0.4166667  -0.2500000), wk =   0.0138889
        k(  158) = (  -0.1666667   0.0833333  -0.2500000), wk =   0.0138889
        k(  159) = (  -0.1666667   0.1666667  -0.2500000), wk =   0.0138889
        k(  160) = (  -0.1666667   0.2500000  -0.2500000), wk =   0.0138889
        k(  161) = (  -0.1666667   0.3333333  -0.2500000), wk =   0.0138889
        k(  162) = (  -0.1666667   0.4166667  -0.2500000), wk =   0.0138889
        k(  163) = (  -0.2500000   0.0833333  -0.2500000), wk =   0.0138889
        k(  164) = (  -0.2500000   0.1666667  -0.2500000), wk =   0.0138889
        k(  165) = (  -0.2500000   0.2500000  -0.2500000), wk =   0.0138889
        k(  166) = (  -0.2500000   0.3333333  -0.2500000), wk =   0.0138889
        k(  167) = (  -0.2500000   0.4166667  -0.2500000), wk =   0.0138889
        k(  168) = (  -0.3333333   0.0833333  -0.2500000), wk =   0.0138889
        k(  169) = (  -0.3333333   0.1666667  -0.2500000), wk =   0.0138889
        k(  170) = (  -0.3333333   0.2500000  -0.2500000), wk =   0.0138889
        k(  171) = (  -0.3333333   0.3333333  -0.2500000), wk =   0.0138889
        k(  172) = (  -0.3333333   0.4166667  -0.2500000), wk =   0.0138889
        k(  173) = (  -0.4166667   0.0833333  -0.2500000), wk =   0.0138889
        k(  174) = (  -0.4166667   0.1666667  -0.2500000), wk =   0.0138889
        k(  175) = (  -0.4166667   0.2500000  -0.2500000), wk =   0.0138889
        k(  176) = (  -0.4166667   0.3333333  -0.2500000), wk =   0.0138889
        k(  177) = (  -0.4166667   0.4166667  -0.2500000), wk =   0.0138889
        k(  178) = (   0.5000000   0.0833333  -0.2500000), wk =   0.0069444
        k(  179) = (   0.5000000   0.1666667  -0.2500000), wk =   0.0069444
        k(  180) = (   0.5000000   0.2500000  -0.2500000), wk =   0.0069444
        k(  181) = (   0.5000000   0.3333333  -0.2500000), wk =   0.0069444
        k(  182) = (   0.5000000   0.4166667  -0.2500000), wk =   0.0069444

     Dense  grid:   181981 G-vectors     FFT dimensions: (  45,  60, 144)

     Smooth grid:    64383 G-vectors     FFT dimensions: (  32,  45, 100)

     Dynamical RAM for                 wfc:       4.91 MB

     Dynamical RAM for     wfc (w. buffer):     898.36 MB

     Dynamical RAM for           str. fact:       2.78 MB

     Dynamical RAM for           local pot:       0.00 MB

     Dynamical RAM for          nlocal pot:      17.67 MB

     Dynamical RAM for                qrad:       3.52 MB

     Dynamical RAM for          rho,v,vnew:      17.23 MB

     Dynamical RAM for               rhoin:       5.74 MB

     Dynamical RAM for            rho*nmix:      44.43 MB

     Dynamical RAM for           G-vectors:      10.90 MB

     Dynamical RAM for          h,s,v(r/c):       0.29 MB

     Dynamical RAM for          <psi|beta>:       0.09 MB

     Dynamical RAM for                 psi:       9.82 MB

     Dynamical RAM for                hpsi:       9.82 MB

     Dynamical RAM for                spsi:       9.82 MB

     Dynamical RAM for      wfcinit/wfcrot:       9.86 MB

     Dynamical RAM for           addusdens:     538.70 MB

     Dynamical RAM for          addusforce:     579.00 MB

     Dynamical RAM for         addusstress:     558.14 MB

     Estimated static dynamical RAM per process >     976.58 MB

     Estimated max dynamical RAM per process >       1.56 GB

     Initial potential from superposition of free atoms

     starting charge      39.9987, renormalised to      40.0000
     Starting wfcs are   32 randomized atomic wfcs +    8 random wfcs
     Checking if some PAW data can be deallocated... 

     total cpu time spent up to now is       26.6 secs

     Self-consistent Calculation

     iteration #  1     ecut=    60.00 Ry     beta= 0.40
     Davidson diagonalization with overlap

---- Real-time Memory Report at c_bands before calling an iterative solver
          1044 MiB given to the printing process from OS
             0 MiB allocation reported by mallinfo(arena+hblkhd)
         11906 MiB available memory on the node where the printing process lives
------------------
     ethr =  1.00E-02,  avg # of iterations =  6.8

     Threshold (ethr) on eigenvalues was too large:
     Diagonalizing with lowered threshold

     Davidson diagonalization with overlap

---- Real-time Memory Report at c_bands before calling an iterative solver
          1586 MiB given to the printing process from OS
             0 MiB allocation reported by mallinfo(arena+hblkhd)
         11877 MiB available memory on the node where the printing process lives
------------------
     ethr =  3.05E-04,  avg # of iterations =  5.0

     total cpu time spent up to now is      234.2 secs

     total energy              =    -444.35263498 Ry
     estimated scf accuracy    <       0.12801613 Ry

     iteration #  2     ecut=    60.00 Ry     beta= 0.40
     Davidson diagonalization with overlap

---- Real-time Memory Report at c_bands before calling an iterative solver
          1597 MiB given to the printing process from OS
             0 MiB allocation reported by mallinfo(arena+hblkhd)
         11886 MiB available memory on the node where the printing process lives
------------------
     ethr =  3.20E-04,  avg # of iterations =  1.1

     total cpu time spent up to now is      307.8 secs

     total energy              =    -444.34754384 Ry
     estimated scf accuracy    <       0.03746023 Ry

     iteration #  3     ecut=    60.00 Ry     beta= 0.40
     Davidson diagonalization with overlap

---- Real-time Memory Report at c_bands before calling an iterative solver
          1599 MiB given to the printing process from OS
             0 MiB allocation reported by mallinfo(arena+hblkhd)
         11884 MiB available memory on the node where the printing process lives
------------------
     ethr =  9.37E-05,  avg # of iterations =  3.5

     total cpu time spent up to now is      390.4 secs

     total energy              =    -444.34911346 Ry
     estimated scf accuracy    <       0.00076699 Ry

     iteration #  4     ecut=    60.00 Ry     beta= 0.40
     Davidson diagonalization with overlap

---- Real-time Memory Report at c_bands before calling an iterative solver
          1601 MiB given to the printing process from OS
             0 MiB allocation reported by mallinfo(arena+hblkhd)
         11881 MiB available memory on the node where the printing process lives
------------------
     c_bands:  1 eigenvalues not converged
     c_bands:  1 eigenvalues not converged
     c_bands:  2 eigenvalues not converged
     c_bands:  1 eigenvalues not converged
     c_bands:  1 eigenvalues not converged
     c_bands:  1 eigenvalues not converged
     c_bands:  1 eigenvalues not converged
     c_bands:  2 eigenvalues not converged
     c_bands:  1 eigenvalues not converged
     c_bands:  1 eigenvalues not converged
     c_bands:  2 eigenvalues not converged
     c_bands:  1 eigenvalues not converged
     c_bands:  1 eigenvalues not converged
     ethr =  1.92E-06,  avg # of iterations = 10.6

     total cpu time spent up to now is      520.0 secs

     total energy              =    -444.34919053 Ry
     estimated scf accuracy    <       0.00008821 Ry

     iteration #  5     ecut=    60.00 Ry     beta= 0.40
     Davidson diagonalization with overlap

---- Real-time Memory Report at c_bands before calling an iterative solver
          1603 MiB given to the printing process from OS
             0 MiB allocation reported by mallinfo(arena+hblkhd)
         11878 MiB available memory on the node where the printing process lives
------------------
     c_bands:  1 eigenvalues not converged
     ethr =  2.21E-07,  avg # of iterations =  1.8

     total cpu time spent up to now is      592.9 secs

     total energy              =    -444.34919784 Ry
     estimated scf accuracy    <       0.00000409 Ry

     iteration #  6     ecut=    60.00 Ry     beta= 0.40
     Davidson diagonalization with overlap

---- Real-time Memory Report at c_bands before calling an iterative solver
          1605 MiB given to the printing process from OS
             0 MiB allocation reported by mallinfo(arena+hblkhd)
         11874 MiB available memory on the node where the printing process lives
------------------
     ethr =  1.02E-08,  avg # of iterations =  2.1

     total cpu time spent up to now is      665.9 secs

     total energy              =    -444.34919895 Ry
     estimated scf accuracy    <       0.00000035 Ry

     iteration #  7     ecut=    60.00 Ry     beta= 0.40
     Davidson diagonalization with overlap

---- Real-time Memory Report at c_bands before calling an iterative solver
          1607 MiB given to the printing process from OS
             0 MiB allocation reported by mallinfo(arena+hblkhd)
         11873 MiB available memory on the node where the printing process lives
------------------
     ethr =  8.84E-10,  avg # of iterations =  2.1

     total cpu time spent up to now is      744.0 secs

     End of self-consistent calculation

          k = 0.0000 0.0000 0.0000 (  8083 PWs)   bands (ev):

    -8.6124  -8.4296  -5.9991  -5.5483  -2.1142  -2.0115   0.5505   1.4753
     1.8555   2.4606   2.6963   2.8991   3.0352   3.1910   4.6183   4.8470
     4.9098   6.2862   6.4385   7.7313   7.8948   8.1489   8.3136   8.3498
     9.1991   9.5261  10.4213  10.5740  13.0549  13.1217  13.2681  13.7068
    13.8669  14.0878  14.2595  14.7078  14.9008  14.9734  15.3163  15.3844

     occupation numbers 
     1.0000   1.0000   1.0000   1.0000   1.0000   1.0000   1.0000   1.0000
     1.0000   1.0000   1.0000   1.0000   1.0000   1.0000   1.0000   1.0000
     1.0000   1.0000   1.0000   1.0032   0.2359   0.0001   0.0000   0.0000
     0.0000   0.0000   0.0000   0.0000   0.0000   0.0000   0.0000   0.0000
     0.0000   0.0000   0.0000   0.0000   0.0000   0.0000   0.0000   0.0000

          k = 0.0000 0.0000 0.0790 (  8059 PWs)   bands (ev):

    -8.5882  -8.4594  -5.9325  -5.6143  -2.0998  -2.0272   0.6373   1.2077
     2.1360   2.5505   2.6567   2.9172   3.0131   3.0604   4.6537   4.8151
     4.9641   5.8428   6.6543   7.6067   8.0792   8.2431   8.3085   8.4811
     9.2744   9.5034  10.4418  10.5496  12.5395  13.3315  13.6412  13.8207
    13.8872  14.0769  14.1418  14.3116  14.7092  14.9594  15.1368  15.6314

     occupation numbers 
     1.0000   1.0000   1.0000   1.0000   1.0000   1.0000   1.0000   1.0000
     1.0000   1.0000   1.0000   1.0000   1.0000   1.0000   1.0000   1.0000
     1.0000   1.0000   1.0000   1.0554   0.0022   0.0000   0.0000   0.0000
     0.0000   0.0000   0.0000   0.0000   0.0000   0.0000   0.0000   0.0000
     0.0000   0.0000   0.0000   0.0000   0.0000   0.0000   0.0000   0.0000

          k = 0.0000 0.0000-0.1580 (  8036 PWs)   bands (ev):

    -8.5268  -8.5264  -5.7733  -5.7730  -2.0644  -2.0641   0.8741   0.8743
     2.4742   2.4744   2.7862   2.7865   2.9631   2.9634   4.7360   4.7362
     5.2550   5.2552   7.1513   7.1515   8.1181   8.1184   8.6271   8.6273
     9.4120   9.4122  10.4936  10.4939  12.7623  12.7623  13.4851  13.4854
    14.2409  14.2412  14.4668  14.4670  14.6204  14.6205  15.3452  15.3454

     occupation numbers 
     1.0000   1.0000   1.0000   1.0000   1.0000   1.0000   1.0000   1.0000
     1.0000   1.0000   1.0000   1.0000   1.0000   1.0000   1.0000   1.0000
     1.0000   1.0000   1.0000   1.0000   0.0005   0.0005   0.0000   0.0000
     0.0000   0.0000   0.0000   0.0000   0.0000   0.0000   0.0000   0.0000
     0.0000   0.0000   0.0000   0.0000   0.0000   0.0000   0.0000   0.0000

          k = 0.0000 0.0632 0.0000 (  8077 PWs)   bands (ev):

    -8.5728  -8.3917  -6.0270  -5.6128  -2.1256  -2.0961   0.5281   1.0953
     2.0524   2.7818   2.8580   2.9289   2.9301   3.0642   4.6011   4.8171
     5.2461   6.1383   6.4021   7.4839   8.0053   8.2125   8.2967   8.8233
     9.1494   9.4380  10.3840  10.4979  12.6107  12.9536  13.2151  13.3674
    13.7157  14.1110  14.4904  15.1526  15.1840  15.2174  15.2704  15.5856

     occupation numbers 
     1.0000   1.0000   1.0000   1.0000   1.0000   1.0000   1.0000   1.0000
     1.0000   1.0000   1.0000   1.0000   1.0000   1.0000   1.0000   1.0000
     1.0000   1.0000   1.0000   1.0042   0.0218   0.0000   0.0000   0.0000
     0.0000   0.0000   0.0000   0.0000   0.0000   0.0000   0.0000   0.0000
     0.0000   0.0000   0.0000   0.0000   0.0000   0.0000   0.0000   0.0000

          k = 0.0000 0.0632 0.0790 (  8051 PWs)   bands (ev):

    -8.5489  -8.4212  -5.9648  -5.6724  -2.1254  -2.1040   0.6111   1.0117
     2.1229   2.6505   2.8696   2.9480   3.0141   3.0425   4.6347   4.7872
     5.2674   5.9859   6.3675   7.3898   8.0362   8.1921   8.5717   8.8674
     9.2259   9.4211  10.3985  10.4788  12.4430  13.0157  13.3088  13.5567
    13.5605  14.2316  14.4264  14.5449  14.9838  15.1434  15.4494  15.8619

     occupation numbers 
     1.0000   1.0000   1.0000   1.0000   1.0000   1.0000   1.0000   1.0000
     1.0000   1.0000   1.0000   1.0000   1.0000   1.0000   1.0000   1.0000
     1.0000   1.0000   1.0000   1.0002   0.0089   0.0000   0.0000   0.0000
     0.0000   0.0000   0.0000   0.0000   0.0000   0.0000   0.0000   0.0000
     0.0000   0.0000   0.0000   0.0000   0.0000   0.0000   0.0000   0.0000

          k = 0.0000 0.0632-0.1580 (  8034 PWs)   bands (ev):

    -8.4879  -8.4876  -5.8176  -5.8173  -2.1187  -2.1183   0.8104   0.8106
     2.3477   2.3477   2.9931   2.9935   3.0023   3.0023   4.7125   4.7128
     5.4737   5.4738   6.8977   6.8979   8.1079   8.1081   8.9060   8.9061
     9.3459   9.3461  10.4361  10.4364  12.7378  12.7378  13.1637  13.1640
    13.9375  13.9376  14.7133  14.7135  15.1008  15.1010  15.2843  15.2845

     occupation numbers 
     1.0000   1.0000   1.0000   1.0000   1.0000   1.0000   1.0000   1.0000
     1.0000   1.0000   1.0000   1.0000   1.0000   1.0000   1.0000   1.0000
     1.0000   1.0000   1.0000   1.0000   0.0008   0.0008   0.0000   0.0000
     0.0000   0.0000   0.0000   0.0000   0.0000   0.0000   0.0000   0.0000
     0.0000   0.0000   0.0000   0.0000   0.0000   0.0000   0.0000   0.0000

          k = 0.0000 0.1264 0.0000 (  8061 PWs)   bands (ev):

    -8.4549  -8.2791  -6.1190  -5.8032  -2.2717  -2.1261   0.4231   0.4370
     2.5154   2.5691   3.0218   3.1496   3.2810   3.2997   4.5467   4.7268
     5.5164   5.8992   6.6976   7.0958   8.0950   8.3167   8.6493   8.9973
     9.1983   9.5495  10.3052  10.3244  11.9829  12.3515  12.7881  13.3212
    13.4654  14.1144  14.8159  15.0638  15.7069  15.8242  15.8843  16.2389

     occupation numbers 
     1.0000   1.0000   1.0000   1.0000   1.0000   1.0000   1.0000   1.0000
     1.0000   1.0000   1.0000   1.0000   1.0000   1.0000   1.0000   1.0000
     1.0000   1.0000   1.0000   1.0000   0.0012   0.0000   0.0000   0.0000
     0.0000   0.0000   0.0000   0.0000   0.0000   0.0000   0.0000   0.0000
     0.0000   0.0000   0.0000   0.0000   0.0000   0.0000   0.0000   0.0000

          k = 0.0000 0.1264 0.0790 (  8052 PWs)   bands (ev):

    -8.4316  -8.3077  -6.0695  -5.8465  -2.2601  -2.1588   0.4674   0.4711
     2.4384   2.4792   3.0389   3.1290   3.3465   3.3466   4.5751   4.7022
     5.7651   5.8936   6.3512   6.9249   8.1293   8.2891   8.9728   9.0438
     9.1944   9.5476  10.3047  10.3181  12.1223  12.4157  12.7244  13.2117
    13.5813  14.3591  14.4193  14.9035  15.4703  15.5129  15.7728  15.8454

     occupation numbers 
     1.0000   1.0000   1.0000   1.0000   1.0000   1.0000   1.0000   1.0000
     1.0000   1.0000   1.0000   1.0000   1.0000   1.0000   1.0000   1.0000
     1.0000   1.0000   1.0000   1.0000   0.0003   0.0000   0.0000   0.0000
     0.0000   0.0000   0.0000   0.0000   0.0000   0.0000   0.0000   0.0000
     0.0000   0.0000   0.0000   0.0000   0.0000   0.0000   0.0000   0.0000

          k = 0.0000 0.1264-0.1580 (  8024 PWs)   bands (ev):

    -8.3724  -8.3721  -5.9552  -5.9549  -2.2200  -2.2196   0.5095   0.5098
     2.3821   2.3821   3.0820   3.0823   3.3970   3.3971   4.6403   4.6406
     5.9916   5.9918   6.3494   6.3496   8.2110   8.2113   9.1397   9.1399
     9.4175   9.4177  10.3079  10.3082  12.5700  12.5703  12.6118  12.6120
    13.8961  13.8961  14.9227  14.9229  15.1516  15.1519  15.6451  15.6451

     occupation numbers 
     1.0000   1.0000   1.0000   1.0000   1.0000   1.0000   1.0000   1.0000
     1.0000   1.0000   1.0000   1.0000   1.0000   1.0000   1.0000   1.0000
     1.0000   1.0000   1.0000   1.0000   0.0000   0.0000   0.0000   0.0000
     0.0000   0.0000   0.0000   0.0000   0.0000   0.0000   0.0000   0.0000
     0.0000   0.0000   0.0000   0.0000   0.0000   0.0000   0.0000   0.0000

          k = 0.0000 0.1895 0.0000 (  8048 PWs)   bands (ev):

    -8.2615  -8.0955  -6.2914  -6.1032  -2.3994  -2.0542  -0.2409   0.1567
     2.3021   3.1702   3.2710   3.2866   3.7499   3.9206   4.4488   4.5761
     4.8418   6.5183   6.6435   6.9810   8.2290   8.5185   8.7718   8.9296
     9.1049  10.1594  10.2542  10.3457  11.4442  11.7292  12.1809  13.1486
    13.7913  13.9869  14.6974  15.1560  15.5810  15.8056  16.3359  16.4572

     occupation numbers 
     1.0000   1.0000   1.0000   1.0000   1.0000   1.0000   1.0000   1.0000
     1.0000   1.0000   1.0000   1.0000   1.0000   1.0000   1.0000   1.0000
     1.0000   1.0000   1.0000   1.0000   0.0000   0.0000   0.0000   0.0000
     0.0000   0.0000   0.0000   0.0000   0.0000   0.0000   0.0000   0.0000
     0.0000   0.0000   0.0000   0.0000   0.0000   0.0000   0.0000   0.0000

          k = 0.0000 0.1895 0.0790 (  8051 PWs)   bands (ev):

    -8.2394  -8.1224  -6.2600  -6.1273  -2.3634  -2.1224  -0.1678   0.1254
     2.3729   3.0347   3.1858   3.2679   3.8545   3.9313   4.4693   4.5591
     5.1034   6.3695   6.5072   6.7655   8.3126   8.4827   8.8164   8.9028
     9.4311  10.1688  10.2358  10.2512  11.7416  11.7941  12.1130  13.0378
    13.8152  14.2112  14.5722  14.9897  15.2828  15.5931  15.6528  16.0975

     occupation numbers 
     1.0000   1.0000   1.0000   1.0000   1.0000   1.0000   1.0000   1.0000
     1.0000   1.0000   1.0000   1.0000   1.0000   1.0000   1.0000   1.0000
     1.0000   1.0000   1.0000   1.0000   0.0000   0.0000   0.0000   0.0000
     0.0000   0.0000   0.0000   0.0000   0.0000   0.0000   0.0000   0.0000
     0.0000   0.0000   0.0000   0.0000   0.0000   0.0000   0.0000   0.0000

          k = 0.0000 0.1895-0.1580 (  8056 PWs)   bands (ev):

    -8.1835  -8.1831  -6.1902  -6.1899  -2.2586  -2.2583  -0.0030  -0.0027
     2.6426   2.6426   3.2251   3.2254   3.9321   3.9323   4.5158   4.5161
     5.7254   5.7256   6.5471   6.5474   8.4093   8.4096   8.8786   8.8788
     9.9451   9.9453  10.1977  10.1980  11.9518  11.9521  12.4396  12.4398
    14.1360  14.1361  14.5726  14.5728  15.3443  15.3444  15.6276  15.6278

     occupation numbers 
     1.0000   1.0000   1.0000   1.0000   1.0000   1.0000   1.0000   1.0000
     1.0000   1.0000   1.0000   1.0000   1.0000   1.0000   1.0000   1.0000
     1.0000   1.0000   1.0000   1.0000   0.0000   0.0000   0.0000   0.0000
     0.0000   0.0000   0.0000   0.0000   0.0000   0.0000   0.0000   0.0000
     0.0000   0.0000   0.0000   0.0000   0.0000   0.0000   0.0000   0.0000

          k = 0.0000 0.2527 0.0000 (  8054 PWs)   bands (ev):

    -7.9975  -7.8478  -6.5478  -6.4790  -2.3888  -1.8748  -0.8749  -0.2653
     2.3638   3.3680   3.4667   4.0511   4.1290   4.1911   4.3036   4.3712
     4.6995   6.1630   6.8357   6.9165   8.4212   8.6253   8.7395   8.8636
     9.6261  10.0861  10.2902  11.0304  11.1532  11.1669  11.6118  13.1707
    13.8710  14.0266  14.3277  14.9268  15.4064  15.5437  16.7182  16.9903

     occupation numbers 
     1.0000   1.0000   1.0000   1.0000   1.0000   1.0000   1.0000   1.0000
     1.0000   1.0000   1.0000   1.0000   1.0000   1.0000   1.0000   1.0000
     1.0000   1.0000   1.0000   1.0000   0.0000   0.0000   0.0000   0.0000
     0.0000   0.0000   0.0000   0.0000   0.0000   0.0000   0.0000   0.0000
     0.0000   0.0000   0.0000   0.0000   0.0000   0.0000   0.0000   0.0000

          k = 0.0000 0.2527 0.0790 (  8061 PWs)   bands (ev):

    -7.9775  -7.8719  -6.5349  -6.4867  -2.3299  -1.9706  -0.7878  -0.3534
     2.5342   3.3813   3.4509   3.6028   4.3149   4.3475   4.3626   4.4346
     4.7400   5.8287   6.8225   6.8625   8.5330   8.6261   8.7488   8.7923
     9.9167  10.1110  10.2552  10.9631  11.2295  11.4083  11.5435  13.0000
    13.8913  14.2055  14.2854  14.6968  15.2543  15.7007  15.7216  16.6787

     occupation numbers 
     1.0000   1.0000   1.0000   1.0000   1.0000   1.0000   1.0000   1.0000
     1.0000   1.0000   1.0000   1.0000   1.0000   1.0000   1.0000   1.0000
     1.0000   1.0000   1.0000   1.0000   0.0000   0.0000   0.0000   0.0000
     0.0000   0.0000   0.0000   0.0000   0.0000   0.0000   0.0000   0.0000
     0.0000   0.0000   0.0000   0.0000   0.0000   0.0000   0.0000   0.0000

          k = 0.0000 0.2527-0.1580 (  8060 PWs)   bands (ev):

    -7.9269  -7.9265  -6.5084  -6.5081  -2.1682  -2.1679  -0.5725  -0.5722
     3.0053   3.0054   3.4147   3.4150   4.3399   4.3402   4.5379   4.5382
     5.1524   5.1526   6.8140   6.8143   8.6346   8.6347   8.7397   8.7398
    10.1780  10.1783  10.4863  10.4864  11.3835  11.3838  12.2653  12.2655
    14.1284  14.1284  14.4472  14.4472  15.1513  15.1514  16.1227  16.1229

     occupation numbers 
     1.0000   1.0000   1.0000   1.0000   1.0000   1.0000   1.0000   1.0000
     1.0000   1.0000   1.0000   1.0000   1.0000   1.0000   1.0000   1.0000
     1.0000   1.0000   1.0000   1.0000   0.0000   0.0000   0.0000   0.0000
     0.0000   0.0000   0.0000   0.0000   0.0000   0.0000   0.0000   0.0000
     0.0000   0.0000   0.0000   0.0000   0.0000   0.0000   0.0000   0.0000

          k = 0.0000 0.3159 0.0000 (  8046 PWs)   bands (ev):

    -7.6713  -7.5472  -6.8888  -6.8666  -2.2139  -1.5847  -1.4322  -0.7442
     2.6321   3.5534   3.6043   3.6770   4.1159   4.1268   4.6247   4.8089
     5.4185   5.7181   6.4372   6.6448   8.6493   8.7196   8.8845   8.9293
    10.1377  10.1474  10.4443  10.7007  10.7573  11.1176  11.9623  13.1846
    13.7736  13.9446  14.0640  14.2315  15.5036  15.9981  16.5740  17.0786

     occupation numbers 
     1.0000   1.0000   1.0000   1.0000   1.0000   1.0000   1.0000   1.0000
     1.0000   1.0000   1.0000   1.0000   1.0000   1.0000   1.0000   1.0000
     1.0000   1.0000   1.0000   1.0000   0.0000   0.0000   0.0000   0.0000
     0.0000   0.0000   0.0000   0.0000   0.0000   0.0000   0.0000   0.0000
     0.0000   0.0000   0.0000   0.0000   0.0000   0.0000   0.0000   0.0000

          k = 0.0000 0.3159 0.0790 (  8042 PWs)   bands (ev):

    -7.6545  -7.5669  -6.8847  -6.8688  -2.1379  -1.6977  -1.3419  -0.8576
     2.8555   3.6142   3.6656   3.8109   4.1182   4.1258   4.1294   4.9413
     5.4078   5.4481   6.5082   6.6270   8.7419   8.7420   8.8853   8.8893
    10.1861  10.3956  10.4025  10.7583  11.0525  11.1283  11.6815  12.8635
    13.8221  13.9832  14.0640  14.3161  15.4124  16.1216  16.1740  16.5692

     occupation numbers 
     1.0000   1.0000   1.0000   1.0000   1.0000   1.0000   1.0000   1.0000
     1.0000   1.0000   1.0000   1.0000   1.0000   1.0000   1.0000   1.0000
     1.0000   1.0000   1.0000   1.0000   0.0000   0.0000   0.0000   0.0000
     0.0000   0.0000   0.0000   0.0000   0.0000   0.0000   0.0000   0.0000
     0.0000   0.0000   0.0000   0.0000   0.0000   0.0000   0.0000   0.0000

          k = 0.0000 0.3159-0.1580 (  8052 PWs)   bands (ev):

    -7.6122  -7.6119  -6.8759  -6.8756  -1.9356  -1.9353  -1.1113  -1.1111
     3.4301   3.4302   3.6390   3.6393   4.1225   4.1228   4.4285   4.4287
     5.3752   5.3755   6.5801   6.5804   8.8064   8.8067   8.8540   8.8543
    10.2858  10.2861  10.9015  10.9017  11.0403  11.0405  11.9997  11.9999
    13.9462  13.9462  14.2584  14.2584  15.4657  15.4658  16.6121  16.6126

     occupation numbers 
     1.0000   1.0000   1.0000   1.0000   1.0000   1.0000   1.0000   1.0000
     1.0000   1.0000   1.0000   1.0000   1.0000   1.0000   1.0000   1.0000
     1.0000   1.0000   1.0000   1.0000   0.0000   0.0000   0.0000   0.0000
     0.0000   0.0000   0.0000   0.0000   0.0000   0.0000   0.0000   0.0000
     0.0000   0.0000   0.0000   0.0000   0.0000   0.0000   0.0000   0.0000

          k = 0.0000-0.3791 0.0000 (  8040 PWs)   bands (ev):

    -7.2954  -7.2954  -7.2114  -7.2114  -1.8869  -1.8869  -1.1990  -1.1990
     3.0412   3.0412   3.8637   3.8637   3.9003   3.9003   5.0211   5.0211
     5.8046   5.8046   6.1047   6.1047   8.8537   8.8537   8.8715   8.8715
    10.3549  10.3549  10.5209  10.5209  10.7229  10.7229  12.7388  12.7388
    13.7749  13.7749  13.9588  13.9588  15.9728  15.9728  16.5247  16.5247

     occupation numbers 
     1.0000   1.0000   1.0000   1.0000   1.0000   1.0000   1.0000   1.0000
     1.0000   1.0000   1.0000   1.0000   1.0000   1.0000   1.0000   1.0000
     1.0000   1.0000   1.0000   1.0000   0.0000   0.0000   0.0000   0.0000
     0.0000   0.0000   0.0000   0.0000   0.0000   0.0000   0.0000   0.0000
     0.0000   0.0000   0.0000   0.0000   0.0000   0.0000   0.0000   0.0000

          k = 0.0000-0.3791 0.0790 (  8034 PWs)   bands (ev):

    -7.2835  -7.2835  -7.2241  -7.2241  -1.8005  -1.8005  -1.3184  -1.3184
     3.2901   3.2902   3.8690   3.8690   3.8948   3.8949   4.6299   4.6299
     5.9173   5.9173   6.0867   6.0867   8.8865   8.8865   8.8922   8.8922
    10.4046  10.4046  10.6642  10.6642  10.8205  10.8205  12.3726  12.3726
    13.8588  13.8588  14.0164  14.0164  15.9188  15.9188  16.5700  16.5700

     occupation numbers 
     1.0000   1.0000   1.0000   1.0000   1.0000   1.0000   1.0000   1.0000
     1.0000   1.0000   1.0000   1.0000   1.0000   1.0000   1.0000   1.0000
     1.0000   1.0000   1.0000   1.0000   0.0000   0.0000   0.0000   0.0000
     0.0000   0.0000   0.0000   0.0000   0.0000   0.0000   0.0000   0.0000
     0.0000   0.0000   0.0000   0.0000   0.0000   0.0000   0.0000   0.0000

          k = 0.0000-0.3791-0.1580 (  8072 PWs)   bands (ev):

    -7.2544  -7.2544  -7.2541  -7.2541  -1.5754  -1.5754  -1.5751  -1.5751
     3.8817   3.8817   3.8820   3.8820   3.9107   3.9107   3.9108   3.9108
     6.0293   6.0293   6.0296   6.0296   8.9103   8.9103   8.9106   8.9106
    10.5297  10.5297  10.5300  10.5300  11.5739  11.5739  11.5741  11.5741
    14.0052  14.0052  14.0054  14.0054  16.0001  16.0001  16.0002  16.0003

     occupation numbers 
     1.0000   1.0000   1.0000   1.0000   1.0000   1.0000   1.0000   1.0000
     1.0000   1.0000   1.0000   1.0000   1.0000   1.0000   1.0000   1.0000
     1.0000   1.0000   1.0000   1.0000   0.0000   0.0000   0.0000   0.0000
     0.0000   0.0000   0.0000   0.0000   0.0000   0.0000   0.0000   0.0000
     0.0000   0.0000   0.0000   0.0000   0.0000   0.0000   0.0000   0.0000

          k = 0.0833 0.0000 0.0000 (  8063 PWs)   bands (ev):

    -8.5292  -8.3470  -5.9127  -5.4626  -2.1715  -2.0843   0.6197   1.5334
     1.9328   2.3960   2.4859   2.6057   2.7664   2.8918   4.3798   4.3828
     4.9379   6.3077   6.5228   7.8435   7.9701   8.4307   8.5843   8.9267
     9.8838   9.8973  10.1520  10.1832  12.7324  12.9274  12.9466  13.5437
    13.6211  13.8645  13.8763  13.9562  13.9584  15.0619  15.5977  16.2538

     occupation numbers 
     1.0000   1.0000   1.0000   1.0000   1.0000   1.0000   1.0000   1.0000
     1.0000   1.0000   1.0000   1.0000   1.0000   1.0000   1.0000   1.0000
     1.0000   1.0000   1.0000   0.4752   0.0532   0.0000   0.0000   0.0000
     0.0000   0.0000   0.0000   0.0000   0.0000   0.0000   0.0000   0.0000
     0.0000   0.0000   0.0000   0.0000   0.0000   0.0000   0.0000   0.0000

          k = 0.0833 0.0000 0.0790 (  8042 PWs)   bands (ev):

    -8.5051  -8.3767  -5.8463  -5.5286  -2.1592  -2.0975   0.7062   1.2728
     2.2063   2.4101   2.5603   2.5621   2.7257   2.8516   4.3488   4.3598
     4.9968   5.8773   6.7319   7.6538   8.3581   8.5448   8.6242   8.8615
     9.9451   9.9515  10.1324  10.1521  12.6587  12.7877  12.9905  13.2985
    13.4933  13.9952  14.0235  14.0457  14.3271  14.3333  15.6075  15.8250

     occupation numbers 
     1.0000   1.0000   1.0000   1.0000   1.0000   1.0000   1.0000   1.0000
     1.0000   1.0000   1.0000   1.0000   1.0000   1.0000   1.0000   1.0000
     1.0000   1.0000   1.0000   1.0817   0.0000   0.0000   0.0000   0.0000
     0.0000   0.0000   0.0000   0.0000   0.0000   0.0000   0.0000   0.0000
     0.0000   0.0000   0.0000   0.0000   0.0000   0.0000   0.0000   0.0000

          k = 0.0833 0.0000-0.1580 (  8040 PWs)   bands (ev):

    -8.4438  -8.4435  -5.6873  -5.6871  -2.1291  -2.1287   0.9420   0.9421
     2.4729   2.4730   2.5422   2.5424   2.7207   2.7207   4.3299   4.3301
     5.2936   5.2938   7.2010   7.2012   8.6607   8.6608   8.7312   8.7314
    10.0625  10.0628  10.0685  10.0688  12.7352  12.7354  13.1835  13.1837
    13.2179  13.2180  14.0531  14.0532  15.0174  15.0175  15.0961  15.0962

     occupation numbers 
     1.0000   1.0000   1.0000   1.0000   1.0000   1.0000   1.0000   1.0000
     1.0000   1.0000   1.0000   1.0000   1.0000   1.0000   1.0000   1.0000
     1.0000   1.0000   1.0000   1.0000   0.0000   0.0000   0.0000   0.0000
     0.0000   0.0000   0.0000   0.0000   0.0000   0.0000   0.0000   0.0000
     0.0000   0.0000   0.0000   0.0000   0.0000   0.0000   0.0000   0.0000

          k = 0.0833 0.0632 0.0000 (  8055 PWs)   bands (ev):

    -8.4897  -8.3092  -5.9413  -5.5282  -2.1738  -2.1538   0.5932   1.1381
     2.0015   2.5136   2.6348   2.7330   2.7343   3.0451   4.2223   4.3399
     5.2933   6.2104   6.4093   7.5171   8.2693   8.6295   8.6747   9.0522
     9.8100   9.8168  10.1163  10.1804  12.3774  12.8376  12.9080  13.0360
    13.2333  14.0305  14.3242  14.3474  14.4728  15.0144  15.5877  16.2934

     occupation numbers 
     1.0000   1.0000   1.0000   1.0000   1.0000   1.0000   1.0000   1.0000
     1.0000   1.0000   1.0000   1.0000   1.0000   1.0000   1.0000   1.0000
     1.0000   1.0000   1.0000   1.0103   0.0000   0.0000   0.0000   0.0000
     0.0000   0.0000   0.0000   0.0000   0.0000   0.0000   0.0000   0.0000
     0.0000   0.0000   0.0000   0.0000   0.0000   0.0000   0.0000   0.0000

          k = 0.0833 0.0632 0.0790 (  8050 PWs)   bands (ev):

    -8.4658  -8.3386  -5.8793  -5.5877  -2.1745  -2.1599   0.6721   1.0545
     2.0902   2.4882   2.5424   2.6125   2.9001   3.0871   4.2270   4.3175
     5.3094   6.0086   6.4350   7.4013   8.5664   8.6656   8.7354   8.9986
     9.8507   9.8591  10.1325  10.1648  12.4472  12.5654  12.8340  13.0749
    13.6764  13.9900  14.0452  14.1933  14.3887  14.9161  15.4098  15.8688

     occupation numbers 
     1.0000   1.0000   1.0000   1.0000   1.0000   1.0000   1.0000   1.0000
     1.0000   1.0000   1.0000   1.0000   1.0000   1.0000   1.0000   1.0000
     1.0000   1.0000   1.0000   1.0003   0.0000   0.0000   0.0000   0.0000
     0.0000   0.0000   0.0000   0.0000   0.0000   0.0000   0.0000   0.0000
     0.0000   0.0000   0.0000   0.0000   0.0000   0.0000   0.0000   0.0000

          k = 0.0833 0.0632-0.1580 (  8036 PWs)   bands (ev):

    -8.4051  -8.4048  -5.7324  -5.7322  -2.1708  -2.1704   0.8612   0.8614
     2.3100   2.3101   2.5154   2.5156   3.0638   3.0639   4.2665   4.2667
     5.5062   5.5063   6.9384   6.9387   8.7435   8.7438   8.8993   8.8994
     9.9058   9.9061  10.1500  10.1503  12.5879  12.5881  12.8381  12.8381
    13.5140  13.5142  14.2772  14.2773  14.7581  14.7582  15.3556  15.3557

     occupation numbers 
     1.0000   1.0000   1.0000   1.0000   1.0000   1.0000   1.0000   1.0000
     1.0000   1.0000   1.0000   1.0000   1.0000   1.0000   1.0000   1.0000
     1.0000   1.0000   1.0000   1.0000   0.0000   0.0000   0.0000   0.0000
     0.0000   0.0000   0.0000   0.0000   0.0000   0.0000   0.0000   0.0000
     0.0000   0.0000   0.0000   0.0000   0.0000   0.0000   0.0000   0.0000

          k = 0.0833 0.1264 0.0000 (  8062 PWs)   bands (ev):

    -8.3721  -8.1970  -6.0350  -5.7211  -2.2986  -2.1533   0.4753   0.4781
     2.1500   2.4461   2.5100   3.0766   3.2329   3.5682   4.0539   4.2271
     5.5797   5.8681   6.6542   7.1001   8.5296   8.8537   8.9379   9.5760
     9.6457   9.6863  10.0504  10.1274  11.7912  12.1724  12.3107  13.1862
    13.1882  14.1462  14.9025  14.9419  15.1285  15.1730  15.4841  16.0777

     occupation numbers 
     1.0000   1.0000   1.0000   1.0000   1.0000   1.0000   1.0000   1.0000
     1.0000   1.0000   1.0000   1.0000   1.0000   1.0000   1.0000   1.0000
     1.0000   1.0000   1.0000   1.0000   0.0000   0.0000   0.0000   0.0000
     0.0000   0.0000   0.0000   0.0000   0.0000   0.0000   0.0000   0.0000
     0.0000   0.0000   0.0000   0.0000   0.0000   0.0000   0.0000   0.0000

          k = 0.0833 0.1264 0.0790 (  8038 PWs)   bands (ev):

    -8.3489  -8.2254  -5.9858  -5.7641  -2.2862  -2.1850   0.5082   0.5119
     2.1716   2.3615   2.5452   2.8556   3.4260   3.5807   4.0744   4.2044
     5.8256   5.8678   6.3258   6.9327   8.7253   8.9243   8.9740   9.4608
     9.6966   9.7308  10.1311  10.1329  11.8601  12.2094  12.2635  13.1501
    13.4834  14.2656  14.3150  14.5888  14.8632  15.3378  15.4568  15.7920

     occupation numbers 
     1.0000   1.0000   1.0000   1.0000   1.0000   1.0000   1.0000   1.0000
     1.0000   1.0000   1.0000   1.0000   1.0000   1.0000   1.0000   1.0000
     1.0000   1.0000   1.0000   1.0000   0.0000   0.0000   0.0000   0.0000
     0.0000   0.0000   0.0000   0.0000   0.0000   0.0000   0.0000   0.0000
     0.0000   0.0000   0.0000   0.0000   0.0000   0.0000   0.0000   0.0000

          k = 0.0833 0.1264-0.1580 (  8042 PWs)   bands (ev):

    -8.2899  -8.2896  -5.8721  -5.8718  -2.2453  -2.2449   0.5438   0.5441
     2.2415   2.2417   2.6443   2.6443   3.5627   3.5628   4.1410   4.1413
     5.9677   5.9679   6.3933   6.3935   8.8616   8.8619   9.2622   9.2623
     9.7704   9.7706  10.1727  10.1730  12.0354  12.0357  12.6682  12.6683
    13.8686  13.8686  14.5121  14.5121  14.7348  14.7349  15.6072  15.6073

     occupation numbers 
     1.0000   1.0000   1.0000   1.0000   1.0000   1.0000   1.0000   1.0000
     1.0000   1.0000   1.0000   1.0000   1.0000   1.0000   1.0000   1.0000
     1.0000   1.0000   1.0000   1.0000   0.0000   0.0000   0.0000   0.0000
     0.0000   0.0000   0.0000   0.0000   0.0000   0.0000   0.0000   0.0000
     0.0000   0.0000   0.0000   0.0000   0.0000   0.0000   0.0000   0.0000

          k = 0.0833 0.1895 0.0000 (  8051 PWs)   bands (ev):

    -8.1792  -8.0139  -6.2096  -6.0234  -2.3976  -2.0599  -0.1967   0.1938
     2.3069   2.3397   2.6096   3.6666   3.7243   3.9018   4.0775   4.2191
     4.9019   6.3445   6.6457   6.8750   8.6988   9.1264   9.2788   9.4951
     9.6006  10.0173  10.0863  10.2537  11.3100  11.5314  11.7148  13.2140
    13.3197  14.1464  15.1670  15.3741  15.4540  15.5373  15.7852  15.7876

     occupation numbers 
     1.0000   1.0000   1.0000   1.0000   1.0000   1.0000   1.0000   1.0000
     1.0000   1.0000   1.0000   1.0000   1.0000   1.0000   1.0000   1.0000
     1.0000   1.0000   1.0000   1.0000   0.0000   0.0000   0.0000   0.0000
     0.0000   0.0000   0.0000   0.0000   0.0000   0.0000   0.0000   0.0000
     0.0000   0.0000   0.0000   0.0000   0.0000   0.0000   0.0000   0.0000

          k = 0.0833 0.1895 0.0790 (  8044 PWs)   bands (ev):

    -8.1573  -8.0407  -6.1786  -6.0472  -2.3617  -2.1255  -0.1271   0.1588
     2.3473   2.3543   2.6376   3.2844   3.8997   3.9112   4.1333   4.2285
     5.1707   6.3458   6.3902   6.6631   8.8631   9.0987   9.3452   9.5124
     9.6846   9.8807  10.1275  10.3531  11.3378  11.6178  11.8208  13.0989
    13.5259  14.2582  14.6020  15.1304  15.2462  15.4146  15.6767  15.6902

     occupation numbers 
     1.0000   1.0000   1.0000   1.0000   1.0000   1.0000   1.0000   1.0000
     1.0000   1.0000   1.0000   1.0000   1.0000   1.0000   1.0000   1.0000
     1.0000   1.0000   1.0000   1.0000   0.0000   0.0000   0.0000   0.0000
     0.0000   0.0000   0.0000   0.0000   0.0000   0.0000   0.0000   0.0000
     0.0000   0.0000   0.0000   0.0000   0.0000   0.0000   0.0000   0.0000

          k = 0.0833 0.1895-0.1580 (  8052 PWs)   bands (ev):

    -8.1015  -8.1012  -6.1094  -6.1091  -2.2582  -2.2579   0.0310   0.0313
     2.3791   2.3793   2.8608   2.8608   3.9186   3.9188   4.2197   4.2199
     5.7837   5.7839   6.4141   6.4143   9.0241   9.0243   9.4668   9.4670
     9.7807   9.7808  10.3067  10.3069  11.4553  11.4555  12.4856  12.4858
    14.0314  14.0315  14.5960  14.5962  15.1486  15.1486  15.5980  15.5982

     occupation numbers 
     1.0000   1.0000   1.0000   1.0000   1.0000   1.0000   1.0000   1.0000
     1.0000   1.0000   1.0000   1.0000   1.0000   1.0000   1.0000   1.0000
     1.0000   1.0000   1.0000   1.0000   0.0000   0.0000   0.0000   0.0000
     0.0000   0.0000   0.0000   0.0000   0.0000   0.0000   0.0000   0.0000
     0.0000   0.0000   0.0000   0.0000   0.0000   0.0000   0.0000   0.0000

          k = 0.0833 0.2527 0.0000 (  8042 PWs)   bands (ev):

    -7.9161  -7.7669  -6.4677  -6.4002  -2.3663  -1.8641  -0.8286  -0.2352
     2.4053   2.5725   2.7831   3.7091   3.7203   4.2147   4.2310   4.4545
     4.9605   6.1793   6.5774   6.8731   8.8942   9.2565   9.3526   9.5111
     9.7493  10.1207  10.2095  10.6072  11.0629  11.2267  11.3502  13.2041
    13.5180  14.0121  14.7457  14.9192  15.3153  15.8404  16.0516  16.4310

     occupation numbers 
     1.0000   1.0000   1.0000   1.0000   1.0000   1.0000   1.0000   1.0000
     1.0000   1.0000   1.0000   1.0000   1.0000   1.0000   1.0000   1.0000
     1.0000   1.0000   1.0000   1.0000   0.0000   0.0000   0.0000   0.0000
     0.0000   0.0000   0.0000   0.0000   0.0000   0.0000   0.0000   0.0000
     0.0000   0.0000   0.0000   0.0000   0.0000   0.0000   0.0000   0.0000

          k = 0.0833 0.2527 0.0790 (  8045 PWs)   bands (ev):

    -7.8961  -7.7909  -6.4551  -6.4077  -2.3081  -1.9566  -0.7442  -0.3220
     2.5262   2.5863   2.8175   3.6484   3.7098   3.8461   4.4651   4.6936
     4.9847   5.8787   6.5862   6.7674   9.0376   9.2342   9.3835   9.4563
     9.8900  10.0799  10.3077  10.6876  11.1353  11.1850  11.4302  13.0070
    13.6924  14.1097  14.6124  14.6568  15.3158  15.6549  15.8307  16.1624

     occupation numbers 
     1.0000   1.0000   1.0000   1.0000   1.0000   1.0000   1.0000   1.0000
     1.0000   1.0000   1.0000   1.0000   1.0000   1.0000   1.0000   1.0000
     1.0000   1.0000   1.0000   1.0000   0.0000   0.0000   0.0000   0.0000
     0.0000   0.0000   0.0000   0.0000   0.0000   0.0000   0.0000   0.0000
     0.0000   0.0000   0.0000   0.0000   0.0000   0.0000   0.0000   0.0000

          k = 0.0833 0.2527-0.1580 (  8054 PWs)   bands (ev):

    -7.8456  -7.8453  -6.4290  -6.4287  -2.1491  -2.1488  -0.5354  -0.5352
     2.6093   2.6095   3.1621   3.1622   3.7243   3.7246   4.7863   4.7865
     5.2613   5.2615   6.6368   6.6371   9.1842   9.1845   9.4192   9.4194
    10.0099  10.0101  10.6547  10.6548  10.9914  10.9917  12.2582  12.2584
    14.1729  14.1731  14.3430  14.3432  15.3224  15.3225  15.8921  15.8922

     occupation numbers 
     1.0000   1.0000   1.0000   1.0000   1.0000   1.0000   1.0000   1.0000
     1.0000   1.0000   1.0000   1.0000   1.0000   1.0000   1.0000   1.0000
     1.0000   1.0000   1.0000   1.0000   0.0000   0.0000   0.0000   0.0000
     0.0000   0.0000   0.0000   0.0000   0.0000   0.0000   0.0000   0.0000
     0.0000   0.0000   0.0000   0.0000   0.0000   0.0000   0.0000   0.0000

          k = 0.0833 0.3159 0.0000 (  8047 PWs)   bands (ev):

    -7.5908  -7.4671  -6.8099  -6.7873  -2.1782  -1.5637  -1.3860  -0.7158
     2.6897   2.8447   3.0055   3.4449   3.4998   3.6237   4.6412   5.1013
     5.6312   5.8006   6.5176   6.5734   9.1218   9.2317   9.2610   9.4311
    10.0789  10.2509  10.3324  10.5603  10.9579  10.9925  11.9991  13.1331
    13.6807  13.8099  14.3089  14.3518  14.9960  15.4273  16.5263  17.0151

     occupation numbers 
     1.0000   1.0000   1.0000   1.0000   1.0000   1.0000   1.0000   1.0000
     1.0000   1.0000   1.0000   1.0000   1.0000   1.0000   1.0000   1.0000
     1.0000   1.0000   1.0000   1.0000   0.0000   0.0000   0.0000   0.0000
     0.0000   0.0000   0.0000   0.0000   0.0000   0.0000   0.0000   0.0000
     0.0000   0.0000   0.0000   0.0000   0.0000   0.0000   0.0000   0.0000

          k = 0.0833 0.3159 0.0790 (  8051 PWs)   bands (ev):

    -7.5739  -7.4867  -6.8057  -6.7895  -2.1033  -1.6730  -1.2978  -0.8260
     2.8322   2.8565   3.0690   3.4456   3.4670   3.9060   4.2340   5.0749
     5.6319   5.6428   6.5251   6.5717   9.2161   9.2441   9.2849   9.3897
    10.2335  10.3365  10.4364  10.6122  10.9236  11.2185  11.7086  12.8140
    13.8135  13.9171  14.1965  14.3888  15.0488  15.5939  15.9061  16.6581

     occupation numbers 
     1.0000   1.0000   1.0000   1.0000   1.0000   1.0000   1.0000   1.0000
     1.0000   1.0000   1.0000   1.0000   1.0000   1.0000   1.0000   1.0000
     1.0000   1.0000   1.0000   1.0000   0.0000   0.0000   0.0000   0.0000
     0.0000   0.0000   0.0000   0.0000   0.0000   0.0000   0.0000   0.0000
     0.0000   0.0000   0.0000   0.0000   0.0000   0.0000   0.0000   0.0000

          k = 0.0833 0.3159-0.1580 (  8062 PWs)   bands (ev):

    -7.5318  -7.5315  -6.7969  -6.7965  -1.9049  -1.9046  -1.0729  -1.0726
     2.8803   2.8806   3.4363   3.4366   3.5738   3.5739   4.5162   4.5163
     5.6216   5.6218   6.5469   6.5471   9.2749   9.2751   9.3257   9.3259
    10.3432  10.3435  10.7030  10.7033  11.0943  11.0944  11.9847  11.9848
    14.0718  14.0719  14.1867  14.1868  15.2714  15.2715  16.0375  16.0378

     occupation numbers 
     1.0000   1.0000   1.0000   1.0000   1.0000   1.0000   1.0000   1.0000
     1.0000   1.0000   1.0000   1.0000   1.0000   1.0000   1.0000   1.0000
     1.0000   1.0000   1.0000   1.0000   0.0000   0.0000   0.0000   0.0000
     0.0000   0.0000   0.0000   0.0000   0.0000   0.0000   0.0000   0.0000
     0.0000   0.0000   0.0000   0.0000   0.0000   0.0000   0.0000   0.0000

          k = 0.0833-0.3791 0.0000 (  8048 PWs)   bands (ev):

    -7.2158  -7.2158  -7.1319  -7.1319  -1.8439  -1.8439  -1.1726  -1.1726
     3.1049   3.1049   3.1429   3.1429   3.2549   3.2549   5.0513   5.0513
     6.0676   6.0676   6.1817   6.1817   9.2085   9.2085   9.3240   9.3240
    10.1550  10.1550  10.4943  10.4943  11.0223  11.0223  12.6987  12.6988
    13.7079  13.7079  14.1226  14.1226  15.0471  15.0471  16.9280  16.9280

     occupation numbers 
     1.0000   1.0000   1.0000   1.0000   1.0000   1.0000   1.0000   1.0000
     1.0000   1.0000   1.0000   1.0000   1.0000   1.0000   1.0000   1.0000
     1.0000   1.0000   1.0000   1.0000   0.0000   0.0000   0.0000   0.0000
     0.0000   0.0000   0.0000   0.0000   0.0000   0.0000   0.0000   0.0000
     0.0000   0.0000   0.0000   0.0000   0.0000   0.0000   0.0000   0.0000

          k = 0.0833-0.3791 0.0790 (  8060 PWs)   bands (ev):

    -7.2039  -7.2039  -7.1446  -7.1446  -1.7591  -1.7591  -1.2884  -1.2884
     3.1508   3.1508   3.1739   3.1739   3.4203   3.4203   4.6989   4.6989
     6.1268   6.1268   6.1832   6.1832   9.2342   9.2342   9.3335   9.3335
    10.3667  10.3667  10.5195  10.5195  11.0814  11.0814  12.3393  12.3393
    13.8192  13.8192  14.1398  14.1398  15.1804  15.1804  16.2953  16.2953

     occupation numbers 
     1.0000   1.0000   1.0000   1.0000   1.0000   1.0000   1.0000   1.0000
     1.0000   1.0000   1.0000   1.0000   1.0000   1.0000   1.0000   1.0000
     1.0000   1.0000   1.0000   1.0000   0.0000   0.0000   0.0000   0.0000
     0.0000   0.0000   0.0000   0.0000   0.0000   0.0000   0.0000   0.0000
     0.0000   0.0000   0.0000   0.0000   0.0000   0.0000   0.0000   0.0000

          k = 0.0833-0.3791-0.1580 (  8044 PWs)   bands (ev):

    -7.1749  -7.1749  -7.1746  -7.1745  -1.5387  -1.5387  -1.5384  -1.5384
     3.1687   3.1687   3.1690   3.1690   4.0102   4.0102   4.0103   4.0103
     6.1750   6.1750   6.1753   6.1753   9.2937   9.2937   9.2940   9.2940
    10.5507  10.5507  10.5510  10.5510  11.5823  11.5823  11.5825  11.5825
    14.0397  14.0397  14.0400  14.0400  15.5822  15.5822  15.5823  15.5823

     occupation numbers 
     1.0000   1.0000   1.0000   1.0000   1.0000   1.0000   1.0000   1.0000
     1.0000   1.0000   1.0000   1.0000   1.0000   1.0000   1.0000   1.0000
     1.0000   1.0000   1.0000   1.0000   0.0000   0.0000   0.0000   0.0000
     0.0000   0.0000   0.0000   0.0000   0.0000   0.0000   0.0000   0.0000
     0.0000   0.0000   0.0000   0.0000   0.0000   0.0000   0.0000   0.0000

          k = 0.1667 0.0000 0.0000 (  8035 PWs)   bands (ev):

    -8.2805  -8.1002  -5.6542  -5.2061  -2.4043  -2.3666   0.8223   1.6992
     1.7820   1.8606   1.9080   1.9482   2.1623   2.9721   3.7713   4.2804
     4.9922   6.3178   6.5617   7.4231   8.1912   8.6723   8.9984   9.3127
    10.1629  10.4552  11.1306  11.2035  11.6333  11.6695  12.2197  12.6573
    12.9294  13.1831  13.7739  13.9943  14.4047  15.0425  15.6350  15.7747

     occupation numbers 
     1.0000   1.0000   1.0000   1.0000   1.0000   1.0000   1.0000   1.0000
     1.0000   1.0000   1.0000   1.0000   1.0000   1.0000   1.0000   1.0000
     1.0000   1.0000   1.0000   1.0006   0.0000   0.0000   0.0000   0.0000
     0.0000   0.0000   0.0000   0.0000   0.0000   0.0000   0.0000   0.0000
[...]

          k =-0.4168 0.1863-0.0772 (  8382 PWs)   bands (ev):

    -6.2400  -6.1390  -4.9306  -4.8744  -3.6767  -3.4603  -2.1808  -2.0470
     0.7992   1.0321   1.7013   1.7957   2.5805   2.7420   3.2956   3.5071
     4.2671   5.0522   5.4039   5.4926   7.8671   8.1681   8.9464   9.1560
     9.2378   9.4871   9.7720  10.0359  10.2859  10.9603  11.4504  11.7128
    12.6171  13.5125  13.8485  14.1198  14.8532  15.9096  16.6373  16.7445

     occupation numbers 
     1.0000   1.0000   1.0000   1.0000   1.0000   1.0000   1.0000   1.0000
     1.0000   1.0000   1.0000   1.0000   1.0000   1.0000   1.0000   1.0000
     1.0000   1.0000   1.0000   1.0000   0.0000   0.0000   0.0000   0.0000
     0.0000   0.0000   0.0000   0.0000   0.0000   0.0000   0.0000   0.0000
     0.0000   0.0000   0.0000   0.0000   0.0000   0.0000   0.0000   0.0000

          k =-0.4168 0.2483-0.0772 (  8370 PWs)   bands (ev):

    -6.0369  -5.9490  -5.0738  -5.0492  -3.4617  -3.2877  -2.3496  -2.2949
     0.6551   0.9701   1.4985   1.6703   2.2915   2.4015   2.9314   3.2825
     4.3544   5.1961   5.3540   5.4639   8.2530   8.8394   9.1878   9.4918
     9.5543   9.6928  10.1665  10.4628  10.8724  11.4590  12.2438  12.2531
    12.8210  13.2995  13.7038  13.9295  14.5960  15.3366  15.7313  16.5277

     occupation numbers 
     1.0000   1.0000   1.0000   1.0000   1.0000   1.0000   1.0000   1.0000
     1.0000   1.0000   1.0000   1.0000   1.0000   1.0000   1.0000   1.0000
     1.0000   1.0000   1.0000   1.0000   0.0000   0.0000   0.0000   0.0000
     0.0000   0.0000   0.0000   0.0000   0.0000   0.0000   0.0000   0.0000
     0.0000   0.0000   0.0000   0.0000   0.0000   0.0000   0.0000   0.0000

          k =-0.4168 0.3104-0.0772 (  8370 PWs)   bands (ev):

    -5.7960  -5.7270  -5.2773  -5.2663  -3.1969  -3.0675  -2.5884  -2.5701
     0.6689   1.0496   1.1346   1.5276   2.1128   2.4776   2.5651   2.9853
     4.5420   5.0926   5.3203   5.4609   8.6039   9.1484   9.2806   9.6896
     9.8398  10.0025  10.7228  10.8078  11.5691  12.1749  12.2304  12.8040
    13.1619  13.2629  13.5536  13.8334  14.3910  14.9009  15.1235  15.6524

     occupation numbers 
     1.0000   1.0000   1.0000   1.0000   1.0000   1.0000   1.0000   1.0000
     1.0000   1.0000   1.0000   1.0000   1.0000   1.0000   1.0000   1.0000
     1.0000   1.0000   1.0000   1.0000   0.0000   0.0000   0.0000   0.0000
     0.0000   0.0000   0.0000   0.0000   0.0000   0.0000   0.0000   0.0000
     0.0000   0.0000   0.0000   0.0000   0.0000   0.0000   0.0000   0.0000

          k = 0.5002 0.0621-0.0772 (  8408 PWs)   bands (ev):

    -5.6678  -5.6678  -5.5644  -5.5644  -3.0515  -3.0515  -2.7771  -2.7771
     1.7038   1.7038   1.8359   1.8359   3.6362   3.6362   3.6467   3.6467
     4.5190   4.5190   4.9758   4.9758   7.6328   7.6328   7.8745   7.8745
     8.8151   8.8151   8.9648   8.9648  10.1382  10.1382  10.4532  10.4532
    13.6013  13.6013  13.7011  13.7011  16.0272  16.0272  16.3683  16.3683

     occupation numbers 
     1.0000   1.0000   1.0000   1.0000   1.0000   1.0000   1.0000   1.0000
     1.0000   1.0000   1.0000   1.0000   1.0000   1.0000   1.0000   1.0000
     1.0000   1.0000   1.0000   1.0000   0.0000   0.0000   0.0000   0.0000
     0.0000   0.0000   0.0000   0.0000   0.0000   0.0000   0.0000   0.0000
     0.0000   0.0000   0.0000   0.0000   0.0000   0.0000   0.0000   0.0000

          k = 0.5002 0.1242-0.0772 (  8384 PWs)   bands (ev):

    -5.5985  -5.5984  -5.5020  -5.5020  -3.0707  -3.0707  -2.8358  -2.8358
     1.5135   1.5135   1.6952   1.6952   3.1889   3.1889   3.3280   3.3280
     4.7324   4.7324   5.2279   5.2280   7.7440   7.7440   8.0729   8.0729
     9.4647   9.4647   9.5006   9.5006  10.2587  10.2587  10.3941  10.3941
    13.2379  13.2379  13.8848  13.8848  15.9123  15.9123  16.6371  16.6371

     occupation numbers 
     1.0000   1.0000   1.0000   1.0000   1.0000   1.0000   1.0000   1.0000
     1.0000   1.0000   1.0000   1.0000   1.0000   1.0000   1.0000   1.0000
     1.0000   1.0000   1.0000   1.0000   0.0000   0.0000   0.0000   0.0000
     0.0000   0.0000   0.0000   0.0000   0.0000   0.0000   0.0000   0.0000
     0.0000   0.0000   0.0000   0.0000   0.0000   0.0000   0.0000   0.0000

          k = 0.5002 0.1863-0.0772 (  8376 PWs)   bands (ev):

    -5.4945  -5.4945  -5.4106  -5.4106  -3.1089  -3.1089  -2.9322  -2.9322
     1.3231   1.3231   1.5766   1.5766   2.6916   2.6916   2.9853   2.9853
     4.8244   4.8244   5.3656   5.3656   8.2121   8.2121   8.6504   8.6504
     9.4366   9.4366   9.9101   9.9102  10.6980  10.6980  11.0266  11.0266
    12.9612  12.9612  14.0201  14.0201  15.3178  15.3178  17.1610  17.1610

     occupation numbers 
     1.0000   1.0000   1.0000   1.0000   1.0000   1.0000   1.0000   1.0000
     1.0000   1.0000   1.0000   1.0000   1.0000   1.0000   1.0000   1.0000
     1.0000   1.0000   1.0000   1.0000   0.0000   0.0000   0.0000   0.0000
     0.0000   0.0000   0.0000   0.0000   0.0000   0.0000   0.0000   0.0000
     0.0000   0.0000   0.0000   0.0000   0.0000   0.0000   0.0000   0.0000

          k = 0.5002 0.2483-0.0772 (  8360 PWs)   bands (ev):

    -5.3755  -5.3755  -5.3116  -5.3116  -3.1632  -3.1632  -3.0513  -3.0513
     1.2259   1.2259   1.5536   1.5536   2.2147   2.2147   2.6060   2.6060
     4.9093   4.9093   5.3857   5.3857   8.7094   8.7094   9.2230   9.2231
     9.5591   9.5591  10.0484  10.0484  11.4126  11.4126  11.9330  11.9330
    12.8143  12.8143  13.9547  13.9547  14.8279  14.8279  16.3286  16.3286

     occupation numbers 
     1.0000   1.0000   1.0000   1.0000   1.0000   1.0000   1.0000   1.0000
     1.0000   1.0000   1.0000   1.0000   1.0000   1.0000   1.0000   1.0000
     1.0000   1.0000   1.0000   1.0000   0.0000   0.0000   0.0000   0.0000
     0.0000   0.0000   0.0000   0.0000   0.0000   0.0000   0.0000   0.0000
     0.0000   0.0000   0.0000   0.0000   0.0000   0.0000   0.0000   0.0000

          k = 0.5002 0.3104-0.0772 (  8352 PWs)   bands (ev):

    -5.2720  -5.2720  -5.2367  -5.2367  -3.2116  -3.2116  -3.1595  -3.1595
     1.2683   1.2683   1.6318   1.6318   1.8255   1.8255   2.2304   2.2304
     5.0370   5.0370   5.3159   5.3159   8.9031   8.9031   9.1397   9.1397
    10.4078  10.4078  10.5127  10.5127  11.8873  11.8873  12.4469  12.4469
    12.8615  12.8615  13.7516  13.7516  14.6165  14.6165  15.5371  15.5371

     occupation numbers 
     1.0000   1.0000   1.0000   1.0000   1.0000   1.0000   1.0000   1.0000
     1.0000   1.0000   1.0000   1.0000   1.0000   1.0000   1.0000   1.0000
     1.0000   1.0000   1.0000   1.0000   0.0000   0.0000   0.0000   0.0000
     0.0000   0.0000   0.0000   0.0000   0.0000   0.0000   0.0000   0.0000
     0.0000   0.0000   0.0000   0.0000   0.0000   0.0000   0.0000   0.0000

     the Fermi energy is     7.2056 ev

!    total energy              =    -444.36955698 Ry
     total all-electron energy =     -5473.677072 Ry
     estimated scf accuracy    <          8.5E-10 Ry
     smearing contrib. (-TS)   =      -0.00000046 Ry
     internal energy E=F+TS    =    -444.36955652 Ry

     The total energy is F=E-TS. E is the sum of the following terms:
     one-electron contribution =      16.76084384 Ry
     hartree contribution      =      12.37979590 Ry
     xc contribution           =     -34.79568542 Ry
     ewald contribution        =    -102.55637616 Ry
     DFT-D3 Dispersion         =      -0.09201338 Ry
     one-center paw contrib.   =    -336.06612129 Ry
      -> PAW hartree energy AE =      54.74715794 Ry
      -> PAW hartree energy PS =     -54.50075839 Ry
      -> PAW xc energy AE      =    -364.88971787 Ry
      -> PAW xc energy PS      =      28.57719703 Ry
      -> total E_H with PAW    =      12.62619545 Ry
      -> total E_XC with PAW   =    -371.10820626 Ry

     convergence has been achieved in   9 iterations

     Forces acting on atoms (cartesian axes, Ry/au):

     atom    1 type  1   force =     0.00000000    0.00006759    0.00006818
     atom    2 type  1   force =     0.00000000   -0.00006759   -0.00006818
     atom    3 type  1   force =     0.00000000    0.00006733   -0.00006979
     atom    4 type  1   force =     0.00000000   -0.00006733    0.00006979
     atom    5 type  1   force =     0.00000000    0.00006756    0.00006987
     atom    6 type  1   force =     0.00000000   -0.00006756   -0.00006987
     atom    7 type  1   force =     0.00000000    0.00006808   -0.00006847
     atom    8 type  1   force =     0.00000000   -0.00006808    0.00006847
     The non-local contrib.  to forces
     atom    1 type  1   force =     0.00000000    0.21064249   -0.22098732
     atom    2 type  1   force =     0.00000000   -0.21064249    0.22098732
     atom    3 type  1   force =     0.00000000    0.21064274    0.22098700
     atom    4 type  1   force =     0.00000000   -0.21064274   -0.22098700
     atom    5 type  1   force =     0.00000000    0.21064227   -0.22098691
     atom    6 type  1   force =     0.00000000   -0.21064227    0.22098691
     atom    7 type  1   force =     0.00000000    0.21064200    0.22098774
     atom    8 type  1   force =     0.00000000   -0.21064200   -0.22098774
     The ionic contribution  to forces
     atom    1 type  1   force =    -0.00000000   -1.29557563    2.42748836
     atom    2 type  1   force =    -0.00000000    1.29557563   -2.42748836
     atom    3 type  1   force =    -0.00000000   -1.29557722   -2.42749360
     atom    4 type  1   force =    -0.00000000    1.29557722    2.42749360
     atom    5 type  1   force =     0.00000000   -1.29557719    2.42749332
     atom    6 type  1   force =     0.00000000    1.29557719   -2.42749332
     atom    7 type  1   force =    -0.00000000   -1.29557587   -2.42748753
     atom    8 type  1   force =     0.00000000    1.29557587    2.42748753
     The local contribution  to forces
     atom    1 type  1   force =     0.00000000    1.09144487   -2.21572349
     atom    2 type  1   force =     0.00000000   -1.09144487    2.21572349
     atom    3 type  1   force =     0.00000000    1.09144616    2.21572816
     atom    4 type  1   force =     0.00000000   -1.09144616   -2.21572816
     atom    5 type  1   force =     0.00000000    1.09144890   -2.21572746
     atom    6 type  1   force =     0.00000000   -1.09144890    2.21572746
     atom    7 type  1   force =     0.00000000    1.09144961    2.21572024
     atom    8 type  1   force =     0.00000000   -1.09144961   -2.21572024
     The core correction contribution to forces
     atom    1 type  1   force =     0.00000000   -0.00773855    0.00864376
     atom    2 type  1   force =     0.00000000    0.00773855   -0.00864376
     atom    3 type  1   force =    -0.00000000   -0.00773854   -0.00864375
     atom    4 type  1   force =     0.00000000    0.00773854    0.00864375
     atom    5 type  1   force =    -0.00000000   -0.00773851    0.00864375
     atom    6 type  1   force =    -0.00000000    0.00773851   -0.00864375
     atom    7 type  1   force =    -0.00000000   -0.00773850   -0.00864381
     atom    8 type  1   force =    -0.00000000    0.00773850    0.00864381
     The Hubbard contrib.    to forces
     atom    1 type  1   force =     0.00000000    0.00000000    0.00000000
     atom    2 type  1   force =     0.00000000    0.00000000    0.00000000
     atom    3 type  1   force =     0.00000000    0.00000000    0.00000000
     atom    4 type  1   force =     0.00000000    0.00000000    0.00000000
     atom    5 type  1   force =     0.00000000    0.00000000    0.00000000
     atom    6 type  1   force =     0.00000000    0.00000000    0.00000000
     atom    7 type  1   force =     0.00000000    0.00000000    0.00000000
     atom    8 type  1   force =     0.00000000    0.00000000    0.00000000
     The SCF correction term to forces
     atom    1 type  1   force =    -0.00000000   -0.00000248   -0.00000530
     atom    2 type  1   force =    -0.00000000    0.00000248    0.00000530
     atom    3 type  1   force =    -0.00000000   -0.00000270    0.00000457
     atom    4 type  1   force =    -0.00000000    0.00000270   -0.00000457
     atom    5 type  1   force =     0.00000000   -0.00000479   -0.00000501
     atom    6 type  1   force =     0.00000000    0.00000479    0.00000501
     atom    7 type  1   force =    -0.00000000   -0.00000604    0.00000706
     atom    8 type  1   force =    -0.00000000    0.00000604   -0.00000706

     DFT-D3 dispersion contribution to forces:
     atom    1 type  1   force =     0.00000000    0.00129688    0.00065217
     atom    2 type  1   force =     0.00000000   -0.00129688   -0.00065217
     atom    3 type  1   force =     0.00000000    0.00129688   -0.00065217
     atom    4 type  1   force =     0.00000000   -0.00129688    0.00065217
     atom    5 type  1   force =    -0.00000000    0.00129688    0.00065217
     atom    6 type  1   force =    -0.00000000   -0.00129688   -0.00065217
     atom    7 type  1   force =    -0.00000000    0.00129688   -0.00065217
     atom    8 type  1   force =    -0.00000000   -0.00129688    0.00065217

     Total force =     0.000273     Total SCF correction =     0.000020

     DFT-D3 dispersion Force =     0.004106


     Computing stress (Cartesian axis) and pressure

          total   stress  (Ry/bohr**3)                   (kbar)     P=        0.12
  -0.00000004   0.00000000   0.00000000           -0.01        0.00        0.00
   0.00000000   0.00000121  -0.00000000            0.00        0.18       -0.00
   0.00000000  -0.00000000   0.00000118            0.00       -0.00        0.17

     kinetic stress (kbar)   3741.03      0.00      0.00
                                0.00   3921.07     -0.00
                                0.00     -0.00   4076.36

     local   stress (kbar)  -2734.74      0.00      0.00
                                0.00  -1401.30     -0.00
                                0.00     -0.00   1989.09

     nonloc. stress (kbar)   2314.72      0.00      0.00
                                0.00   2282.10     -0.00
                                0.00     -0.00   2277.30

     hartree stress (kbar)   1232.47      0.00      0.00
                                0.00    843.63      0.00
                                0.00      0.00   -369.80

     exc-cor stress (kbar)   -213.65      0.00      0.00
                                0.00   -215.18      0.00
                                0.00      0.00   -219.34

     corecor stress (kbar)  -1119.98      0.00     -0.00
                                0.00  -1120.62      0.00
                               -0.00      0.00  -1121.54

     ewald   stress (kbar)  -3211.51     -0.00     -0.00
                               -0.00  -4300.31      0.00
                               -0.00      0.00  -6623.47

     hubbard stress (kbar)      0.00      0.00      0.00
                                0.00      0.00      0.00
                                0.00      0.00      0.00

     DFT-D   stress (kbar)     -8.34      0.00     -0.00
                                0.00     -9.21      0.00
                               -0.00      0.00     -8.44

     XDM     stress (kbar)      0.00      0.00      0.00
                                0.00      0.00      0.00
                                0.00      0.00      0.00

     dft-nl  stress (kbar)      0.00      0.00      0.00
                                0.00      0.00      0.00
                                0.00      0.00      0.00

     TS-vdW  stress (kbar)      0.00      0.00      0.00
                                0.00      0.00      0.00
                                0.00      0.00      0.00

     MDB     stress (kbar)      0.00      0.00      0.00
                                0.00      0.00      0.00
                                0.00      0.00      0.00

     3D-RISM stress (kbar)      0.00      0.00      0.00
                                0.00      0.00      0.00
                                0.00      0.00      0.00


     Writing all to output data dir /home/kravt/QE/qe-7.4.1/BP/Bulk/D = 0/tmp/bulk_bp.save/ :
     XML data file, charge density, pseudopotentials, collected wavefunctions

     init_run     :    243.08s CPU     50.57s WALL (       2 calls)
     electrons    :  37446.91s CPU   7862.53s WALL (      16 calls)
     update_pot   :     14.67s CPU     11.73s WALL (      14 calls)
     forces       :    246.66s CPU     95.96s WALL (      16 calls)
     force_dftd3  :      4.74s CPU      4.76s WALL (      16 calls)
     stress       :   1128.76s CPU    476.55s WALL (      16 calls)
     stres_dftd3  :      4.75s CPU      4.77s WALL (      16 calls)

     Called by init_run:
     wfcinit      :    238.63s CPU     45.57s WALL (       2 calls)
     wfcinit:atom :      3.90s CPU      0.82s WALL (     364 calls)
     wfcinit:wfcr :    215.84s CPU     41.02s WALL (     364 calls)
     potinit      :      2.30s CPU      2.45s WALL (       2 calls)
     hinit0       :      1.08s CPU      1.19s WALL (       2 calls)

     Called by electrons:
     c_bands      :  35999.62s CPU   7140.43s WALL (      96 calls)
     sum_band     :   1338.67s CPU    619.85s WALL (      96 calls)
     v_of_rho     :      8.87s CPU      8.32s WALL (      99 calls)
     v_h          :      0.34s CPU      0.40s WALL (      99 calls)
     v_xc         :     13.19s CPU     10.91s WALL (     131 calls)
     newd         :     39.81s CPU     38.64s WALL (      99 calls)
     PAW_pot      :     81.90s CPU     80.46s WALL (     113 calls)
     mix_rho      :      0.52s CPU      0.54s WALL (      96 calls)
     energy_dftd3 :      7.92s CPU      4.18s WALL (      16 calls)

     Called by c_bands:
     init_us_2    :    956.20s CPU    249.03s WALL (   43680 calls)
     cegterg      :  26654.68s CPU   5265.98s WALL (   17478 calls)

     Called by sum_band:
     sum_band:wei :      2.29s CPU      0.39s WALL (      96 calls)
     sum_band:loo :   1204.05s CPU    578.22s WALL (      96 calls)
     sum_band:buf :     17.80s CPU      6.53s WALL (   17472 calls)
     sum_band:ini :    152.64s CPU     76.72s WALL (   17472 calls)
     sum_band:cal :    259.27s CPU     68.22s WALL (   20020 calls)
     sum_band:bec :      1.84s CPU      0.64s WALL (   20020 calls)
     addusdens    :    131.29s CPU     40.50s WALL (      96 calls)
                                        0.00s GPU  (      96 calls)
     addusd:skk   :      0.71s CPU      0.48s WALL (      96 calls)
                                        0.00s GPU  (      96 calls)

     Called by *egterg:
     cdiaghg      :    939.37s CPU    186.52s WALL (   60041 calls)
     cegterg:over :   1384.80s CPU    165.59s WALL (   47483 calls)
     cegterg:upda :    709.93s CPU     96.91s WALL (   47483 calls)
     cegterg:last :   1506.93s CPU    145.37s WALL (   36813 calls)
     h_psi        :  18208.91s CPU   4051.22s WALL (   65325 calls)
     s_psi        :   1280.72s CPU    131.15s WALL (   65325 calls)
     g_psi        :    616.36s CPU    101.27s WALL (   47483 calls)

     Called by h_psi:
     h_psi:calbec :   1258.13s CPU    221.30s WALL (   65325 calls)
     vloc_psi     :  15420.43s CPU   3625.31s WALL (   65325 calls)
     add_vuspsi   :   1362.39s CPU    173.16s WALL (   65325 calls)

     General routines
     calbec       :   2119.06s CPU    455.01s WALL (  134849 calls)
     fft          :      5.14s CPU      4.27s WALL (    1682 calls)
     ffts         :      0.77s CPU      0.63s WALL (     195 calls)
     fftw         :  12494.56s CPU   3145.69s WALL ( 4286804 calls)
     interpolate  :      0.80s CPU      0.81s WALL (      99 calls)

     Parallel routines

     PAW routines
     PAW_pot      :     81.90s CPU     80.46s WALL (     113 calls)
     PAW_symme    :      0.04s CPU      0.03s WALL (     209 calls)

     PWSCF        :     10h52m CPU      2h22m WALL


   This run was terminated on:  21:42:26   8Oct2025            

=------------------------------------------------------------------------------=
   JOB DONE.
=------------------------------------------------------------------------------=
