
     Program PWSCF v.7.4.1 starts on  7Oct2025 at 10:52: 4 

     This program is part of the open-source Quantum ESPRESSO suite
     for quantum simulation of materials; please cite
         "P. Giannozzi et al., J. Phys.:Condens. Matter 21 395502 (2009);
         "P. Giannozzi et al., J. Phys.:Condens. Matter 29 465901 (2017);
         "P. Giannozzi et al., J. Chem. Phys. 152 154105 (2020);
          URL http://www.quantum-espresso.org", 
     in publications or presentations arising from this work. More details at
     http://www.quantum-espresso.org/quote

     Parallel version (MPI), running on     1 processors

     MPI processes distributed on     1 nodes
     13236 MiB available memory on the printing compute node when the environment starts

     Waiting for input...
     Reading input from standard input

     Current dimensions of program PWSCF are:
     Max number of different atomic species (ntypx) = 10
     Max number of k-points (npk) =  40000
     Max angular momentum in pseudopotentials (lmaxx) =  4
     Presently no symmetry can be used with electric field

     Presently stress not available with electric field and gates

     file P.pbe-n-kjpaw_psl.1.0.0.UPF: wavefunction(s)  3S 3P renormalized

     IMPORTANT: XC functional enforced from input :
     Exchange-correlation= PBE
                           (   1   4   3   4   0   0   0)
     Any further DFT definition will be discarded
     Please, verify this is what you really want


     Atomic positions and unit cell read from directory:
     /home/kravt/QE/qe-7.4.1/BP/Bulk/D = 0/tmp/bulk_bp.save/

     Found identity + ( -0.5000  0.0000  0.5000) symmetry
     This is a supercell, fractional translations are disabled

     Subspace diagonalization in iterative solution of the eigenvalue problem:
     a serial algorithm will be used


     G-vector sticks info
     --------------------
     sticks:   dense  smooth     PW     G-vecs:    dense   smooth      PW
     Sum        1975     991    281               182381    64591    9757

     Using Slab Decomposition



     bravais-lattice index     =            8
     lattice parameter (alat)  =       6.2550  a.u.
     unit-cell volume          =    1027.2770 (a.u.)^3
     number of atoms/cell      =            8
     number of atomic types    =            1
     number of electrons       =        40.00
     number of Kohn-Sham states=           40
     kinetic-energy cutoff     =      60.0000  Ry
     charge density cutoff     =     480.0000  Ry
     Exchange-correlation= PBE
                           (   1   4   3   4   0   0   0)
     Hubbard projectors: ortho-atomic
     Hubbard parameters of DFT+U (Dudarev formulation) in eV:
     U(P-3p) =  2.0000

     Internal variables: lda_plus_u =T, lda_plus_u_kind = 0

     celldm(1)=   6.254993  celldm(2)=   1.323262  celldm(3)=   3.172205
     celldm(4)=   0.000000  celldm(5)=   0.000000  celldm(6)=   0.000000

     crystal axes: (cart. coord. in units of alat)
               a(1) = (   1.000000   0.000000   0.000000 )  
               a(2) = (   0.000000   1.323262   0.000000 )  
               a(3) = (   0.000000   0.000000   3.172205 )  

     reciprocal axes: (cart. coord. in units 2 pi/alat)
               b(1) = (  1.000000  0.000000  0.000000 )  
               b(2) = (  0.000000  0.755708  0.000000 )  
               b(3) = (  0.000000  0.000000  0.315238 )  


     PseudoPot. # 1 for P  read from file:
     /home/kravt/QE/qe-7.4.1/pseudo/P.pbe-n-kjpaw_psl.1.0.0.UPF
     MD5 check sum: 06b8cad1975795032ee26009bb7624c7
     Pseudo is Projector augmented-wave + core cor, Zval =  5.0
     Generated using &quot;atomic&quot; code by A. Dal Corso  v.6.3
     Shape of augmentation charge: PSQ
     Using radial grid of 1147 points,  6 beta functions with: 
                l(1) =   0
                l(2) =   0
                l(3) =   1
                l(4) =   1
                l(5) =   2
                l(6) =   2
     Q(r) pseudized with 0 coefficients 


     atomic species   valence    mass     pseudopotential
     P                 5.00    30.97400     P ( 1.00)

     No symmetry found


                                    s                        frac. trans.

      isym =  1     identity                                     

 cryst.   s( 1) = (     1          0          0      )
                  (     0          1          0      )
                  (     0          0          1      )

 cart.    s( 1) = (  1.0000000  0.0000000  0.0000000 )
                  (  0.0000000  1.0000000  0.0000000 )
                  (  0.0000000  0.0000000  1.0000000 )


     point group C_1 (1)    
     there are  1 classes
     the character table:

       E    
A      1.00

     the symmetry operations in each class and the name of the first element:

     E        1
          identity                                               

   Cartesian axes

     site n.     atom                  positions (alat units)
         1        P      tau(   1) = (   0.0000000   0.1190936   0.3108761  )
         2        P      tau(   2) = (   0.0000000   1.2041684   2.8613289  )
         3        P      tau(   3) = (   0.0000000   0.7807246   1.2752264  )
         4        P      tau(   4) = (   0.0000000   0.5425374   1.8969786  )
         5        P      tau(   5) = (   0.5000000   0.1190936   1.8969786  )
         6        P      tau(   6) = (   0.5000000   1.2041684   1.2752264  )
         7        P      tau(   7) = (   0.5000000   0.7807246   2.8613289  )
         8        P      tau(   8) = (   0.5000000   0.5425374   0.3108761  )

     --------------------------------------------
     DFT-D3 Dispersion Correction (3-body terms):
     --------------------------------------------
       Reference C6 values for interpolation: 

         atom   Coordination number   C6
         P          0.000           383.38
         P          0.995           361.25
         P          2.010           351.11
         P          2.986           303.38

       Values used:

         atom   Coordination number  R0_AB[au]  C6      C8
         P          4.017            3.309    303.38  16807.04
         P          4.017            3.309    303.38  16807.04
         P          4.017            3.309    303.38  16807.04
         P          4.017            3.309    303.38  16807.04
         P          4.017            3.309    303.38  16807.04
         P          4.017            3.309    303.38  16807.04
         P          4.017            3.309    303.38  16807.04
         P          4.017            3.309    303.38  16807.04

         Molecular C6 ( Ry / a.u.^6 ) =     19416.16


   Crystallographic axes

     site n.     atom                  positions (cryst. coord.)
         1        P      tau(   1) = (  0.0000000  0.0900000  0.0980000  )
         2        P      tau(   2) = (  0.0000000  0.9100000  0.9020000  )
         3        P      tau(   3) = (  0.0000000  0.5900000  0.4020000  )
         4        P      tau(   4) = (  0.0000000  0.4100000  0.5980000  )
         5        P      tau(   5) = (  0.5000000  0.0900000  0.5980000  )
         6        P      tau(   6) = (  0.5000000  0.9100000  0.4020000  )
         7        P      tau(   7) = (  0.5000000  0.5900000  0.9020000  )
         8        P      tau(   8) = (  0.5000000  0.4100000  0.0980000  )

     number of k points=    81  Marzari-Vanderbilt smearing, width (Ry)=  0.0001
                       cart. coord. in units 2pi/alat
        k(    1) = (   0.5000000   0.0000000   0.0000000), wk =   0.0246914
        k(    2) = (   0.4875000   0.0000000   0.0000000), wk =   0.0246914
        k(    3) = (   0.4750000   0.0000000   0.0000000), wk =   0.0246914
        k(    4) = (   0.4625000   0.0000000   0.0000000), wk =   0.0246914
        k(    5) = (   0.4500000   0.0000000   0.0000000), wk =   0.0246914
        k(    6) = (   0.4375000   0.0000000   0.0000000), wk =   0.0246914
        k(    7) = (   0.4250000   0.0000000   0.0000000), wk =   0.0246914
        k(    8) = (   0.4125000   0.0000000   0.0000000), wk =   0.0246914
        k(    9) = (   0.4000000   0.0000000   0.0000000), wk =   0.0246914
        k(   10) = (   0.3875000   0.0000000   0.0000000), wk =   0.0246914
        k(   11) = (   0.3750000   0.0000000   0.0000000), wk =   0.0246914
        k(   12) = (   0.3625000   0.0000000   0.0000000), wk =   0.0246914
        k(   13) = (   0.3500000   0.0000000   0.0000000), wk =   0.0246914
        k(   14) = (   0.3375000   0.0000000   0.0000000), wk =   0.0246914
        k(   15) = (   0.3250000   0.0000000   0.0000000), wk =   0.0246914
        k(   16) = (   0.3125000   0.0000000   0.0000000), wk =   0.0246914
        k(   17) = (   0.3000000   0.0000000   0.0000000), wk =   0.0246914
        k(   18) = (   0.2875000   0.0000000   0.0000000), wk =   0.0246914
        k(   19) = (   0.2750000   0.0000000   0.0000000), wk =   0.0246914
        k(   20) = (   0.2625000   0.0000000   0.0000000), wk =   0.0246914
        k(   21) = (   0.2500000   0.0000000   0.0000000), wk =   0.0246914
        k(   22) = (   0.2375000   0.0000000   0.0000000), wk =   0.0246914
        k(   23) = (   0.2250000   0.0000000   0.0000000), wk =   0.0246914
        k(   24) = (   0.2125000   0.0000000   0.0000000), wk =   0.0246914
        k(   25) = (   0.2000000   0.0000000   0.0000000), wk =   0.0246914
        k(   26) = (   0.1875000   0.0000000   0.0000000), wk =   0.0246914
        k(   27) = (   0.1750000   0.0000000   0.0000000), wk =   0.0246914
        k(   28) = (   0.1625000   0.0000000   0.0000000), wk =   0.0246914
        k(   29) = (   0.1500000   0.0000000   0.0000000), wk =   0.0246914
        k(   30) = (   0.1375000   0.0000000   0.0000000), wk =   0.0246914
        k(   31) = (   0.1250000   0.0000000   0.0000000), wk =   0.0246914
        k(   32) = (   0.1125000   0.0000000   0.0000000), wk =   0.0246914
        k(   33) = (   0.1000000   0.0000000   0.0000000), wk =   0.0246914
        k(   34) = (   0.0875000   0.0000000   0.0000000), wk =   0.0246914
        k(   35) = (   0.0750000   0.0000000   0.0000000), wk =   0.0246914
        k(   36) = (   0.0625000   0.0000000   0.0000000), wk =   0.0246914
        k(   37) = (   0.0500000   0.0000000   0.0000000), wk =   0.0246914
        k(   38) = (   0.0375000   0.0000000   0.0000000), wk =   0.0246914
        k(   39) = (   0.0250000   0.0000000   0.0000000), wk =   0.0246914
        k(   40) = (   0.0125000   0.0000000   0.0000000), wk =   0.0246914
        k(   41) = (   0.0000000   0.0000000   0.0000000), wk =   0.0246914
        k(   42) = (   0.0000000   0.0094464   0.0000000), wk =   0.0246914
        k(   43) = (   0.0000000   0.0188927   0.0000000), wk =   0.0246914
        k(   44) = (   0.0000000   0.0283391   0.0000000), wk =   0.0246914
        k(   45) = (   0.0000000   0.0377854   0.0000000), wk =   0.0246914
        k(   46) = (   0.0000000   0.0472318   0.0000000), wk =   0.0246914
        k(   47) = (   0.0000000   0.0566781   0.0000000), wk =   0.0246914
        k(   48) = (   0.0000000   0.0661245   0.0000000), wk =   0.0246914
        k(   49) = (   0.0000000   0.0755708   0.0000000), wk =   0.0246914
        k(   50) = (   0.0000000   0.0850172   0.0000000), wk =   0.0246914
        k(   51) = (   0.0000000   0.0944635   0.0000000), wk =   0.0246914
        k(   52) = (   0.0000000   0.1039099   0.0000000), wk =   0.0246914
        k(   53) = (   0.0000000   0.1133562   0.0000000), wk =   0.0246914
        k(   54) = (   0.0000000   0.1228026   0.0000000), wk =   0.0246914
        k(   55) = (   0.0000000   0.1322489   0.0000000), wk =   0.0246914
        k(   56) = (   0.0000000   0.1416953   0.0000000), wk =   0.0246914
        k(   57) = (   0.0000000   0.1511416   0.0000000), wk =   0.0246914
        k(   58) = (   0.0000000   0.1605880   0.0000000), wk =   0.0246914
        k(   59) = (   0.0000000   0.1700344   0.0000000), wk =   0.0246914
        k(   60) = (   0.0000000   0.1794807   0.0000000), wk =   0.0246914
        k(   61) = (   0.0000000   0.1889271   0.0000000), wk =   0.0246914
        k(   62) = (   0.0000000   0.1983734   0.0000000), wk =   0.0246914
        k(   63) = (   0.0000000   0.2078198   0.0000000), wk =   0.0246914
        k(   64) = (   0.0000000   0.2172661   0.0000000), wk =   0.0246914
        k(   65) = (   0.0000000   0.2267125   0.0000000), wk =   0.0246914
        k(   66) = (   0.0000000   0.2361588   0.0000000), wk =   0.0246914
        k(   67) = (   0.0000000   0.2456052   0.0000000), wk =   0.0246914
        k(   68) = (   0.0000000   0.2550515   0.0000000), wk =   0.0246914
        k(   69) = (   0.0000000   0.2644979   0.0000000), wk =   0.0246914
        k(   70) = (   0.0000000   0.2739442   0.0000000), wk =   0.0246914
        k(   71) = (   0.0000000   0.2833906   0.0000000), wk =   0.0246914
        k(   72) = (   0.0000000   0.2928369   0.0000000), wk =   0.0246914
        k(   73) = (   0.0000000   0.3022833   0.0000000), wk =   0.0246914
        k(   74) = (   0.0000000   0.3117296   0.0000000), wk =   0.0246914
        k(   75) = (   0.0000000   0.3211760   0.0000000), wk =   0.0246914
        k(   76) = (   0.0000000   0.3306224   0.0000000), wk =   0.0246914
        k(   77) = (   0.0000000   0.3400687   0.0000000), wk =   0.0246914
        k(   78) = (   0.0000000   0.3495151   0.0000000), wk =   0.0246914
        k(   79) = (   0.0000000   0.3589614   0.0000000), wk =   0.0246914
        k(   80) = (   0.0000000   0.3684078   0.0000000), wk =   0.0246914
        k(   81) = (   0.0000000   0.3778541   0.0000000), wk =   0.0246914

                       cryst. coord.
        k(    1) = (   0.5000000   0.0000000   0.0000000), wk =   0.0246914
        k(    2) = (   0.4875000   0.0000000   0.0000000), wk =   0.0246914
        k(    3) = (   0.4750000   0.0000000   0.0000000), wk =   0.0246914
        k(    4) = (   0.4625000   0.0000000   0.0000000), wk =   0.0246914
        k(    5) = (   0.4500000   0.0000000   0.0000000), wk =   0.0246914
        k(    6) = (   0.4375000   0.0000000   0.0000000), wk =   0.0246914
        k(    7) = (   0.4250000   0.0000000   0.0000000), wk =   0.0246914
        k(    8) = (   0.4125000   0.0000000   0.0000000), wk =   0.0246914
        k(    9) = (   0.4000000   0.0000000   0.0000000), wk =   0.0246914
        k(   10) = (   0.3875000   0.0000000   0.0000000), wk =   0.0246914
        k(   11) = (   0.3750000   0.0000000   0.0000000), wk =   0.0246914
        k(   12) = (   0.3625000   0.0000000   0.0000000), wk =   0.0246914
        k(   13) = (   0.3500000   0.0000000   0.0000000), wk =   0.0246914
        k(   14) = (   0.3375000   0.0000000   0.0000000), wk =   0.0246914
        k(   15) = (   0.3250000   0.0000000   0.0000000), wk =   0.0246914
        k(   16) = (   0.3125000   0.0000000   0.0000000), wk =   0.0246914
        k(   17) = (   0.3000000   0.0000000   0.0000000), wk =   0.0246914
        k(   18) = (   0.2875000   0.0000000   0.0000000), wk =   0.0246914
        k(   19) = (   0.2750000   0.0000000   0.0000000), wk =   0.0246914
        k(   20) = (   0.2625000   0.0000000   0.0000000), wk =   0.0246914
        k(   21) = (   0.2500000   0.0000000   0.0000000), wk =   0.0246914
        k(   22) = (   0.2375000   0.0000000   0.0000000), wk =   0.0246914
        k(   23) = (   0.2250000   0.0000000   0.0000000), wk =   0.0246914
        k(   24) = (   0.2125000   0.0000000   0.0000000), wk =   0.0246914
        k(   25) = (   0.2000000   0.0000000   0.0000000), wk =   0.0246914
        k(   26) = (   0.1875000   0.0000000   0.0000000), wk =   0.0246914
        k(   27) = (   0.1750000   0.0000000   0.0000000), wk =   0.0246914
        k(   28) = (   0.1625000   0.0000000   0.0000000), wk =   0.0246914
        k(   29) = (   0.1500000   0.0000000   0.0000000), wk =   0.0246914
        k(   30) = (   0.1375000   0.0000000   0.0000000), wk =   0.0246914
        k(   31) = (   0.1250000   0.0000000   0.0000000), wk =   0.0246914
        k(   32) = (   0.1125000   0.0000000   0.0000000), wk =   0.0246914
        k(   33) = (   0.1000000   0.0000000   0.0000000), wk =   0.0246914
        k(   34) = (   0.0875000   0.0000000   0.0000000), wk =   0.0246914
        k(   35) = (   0.0750000   0.0000000   0.0000000), wk =   0.0246914
        k(   36) = (   0.0625000   0.0000000   0.0000000), wk =   0.0246914
        k(   37) = (   0.0500000   0.0000000   0.0000000), wk =   0.0246914
        k(   38) = (   0.0375000   0.0000000   0.0000000), wk =   0.0246914
        k(   39) = (   0.0250000   0.0000000   0.0000000), wk =   0.0246914
        k(   40) = (   0.0125000   0.0000000   0.0000000), wk =   0.0246914
        k(   41) = (   0.0000000   0.0000000   0.0000000), wk =   0.0246914
        k(   42) = (   0.0000000   0.0125000   0.0000000), wk =   0.0246914
        k(   43) = (   0.0000000   0.0250000   0.0000000), wk =   0.0246914
        k(   44) = (   0.0000000   0.0375000   0.0000000), wk =   0.0246914
        k(   45) = (   0.0000000   0.0500000   0.0000000), wk =   0.0246914
        k(   46) = (   0.0000000   0.0625000   0.0000000), wk =   0.0246914
        k(   47) = (   0.0000000   0.0750000   0.0000000), wk =   0.0246914
        k(   48) = (   0.0000000   0.0875000   0.0000000), wk =   0.0246914
        k(   49) = (   0.0000000   0.1000000   0.0000000), wk =   0.0246914
        k(   50) = (   0.0000000   0.1125000   0.0000000), wk =   0.0246914
        k(   51) = (   0.0000000   0.1250000   0.0000000), wk =   0.0246914
        k(   52) = (   0.0000000   0.1375000   0.0000000), wk =   0.0246914
        k(   53) = (   0.0000000   0.1500000   0.0000000), wk =   0.0246914
        k(   54) = (   0.0000000   0.1625000   0.0000000), wk =   0.0246914
        k(   55) = (   0.0000000   0.1750000   0.0000000), wk =   0.0246914
        k(   56) = (   0.0000000   0.1875000   0.0000000), wk =   0.0246914
        k(   57) = (   0.0000000   0.2000000   0.0000000), wk =   0.0246914
        k(   58) = (   0.0000000   0.2125000   0.0000000), wk =   0.0246914
        k(   59) = (   0.0000000   0.2250000   0.0000000), wk =   0.0246914
        k(   60) = (   0.0000000   0.2375000   0.0000000), wk =   0.0246914
        k(   61) = (   0.0000000   0.2500000   0.0000000), wk =   0.0246914
        k(   62) = (   0.0000000   0.2625000   0.0000000), wk =   0.0246914
        k(   63) = (   0.0000000   0.2750000   0.0000000), wk =   0.0246914
        k(   64) = (   0.0000000   0.2875000   0.0000000), wk =   0.0246914
        k(   65) = (   0.0000000   0.3000000   0.0000000), wk =   0.0246914
        k(   66) = (   0.0000000   0.3125000   0.0000000), wk =   0.0246914
        k(   67) = (   0.0000000   0.3250000   0.0000000), wk =   0.0246914
        k(   68) = (   0.0000000   0.3375000   0.0000000), wk =   0.0246914
        k(   69) = (   0.0000000   0.3500000   0.0000000), wk =   0.0246914
        k(   70) = (   0.0000000   0.3625000   0.0000000), wk =   0.0246914
        k(   71) = (   0.0000000   0.3750000   0.0000000), wk =   0.0246914
        k(   72) = (   0.0000000   0.3875000   0.0000000), wk =   0.0246914
        k(   73) = (   0.0000000   0.4000000   0.0000000), wk =   0.0246914
        k(   74) = (   0.0000000   0.4125000   0.0000000), wk =   0.0246914
        k(   75) = (   0.0000000   0.4250000   0.0000000), wk =   0.0246914
        k(   76) = (   0.0000000   0.4375000   0.0000000), wk =   0.0246914
        k(   77) = (   0.0000000   0.4500000   0.0000000), wk =   0.0246914
        k(   78) = (   0.0000000   0.4625000   0.0000000), wk =   0.0246914
        k(   79) = (   0.0000000   0.4750000   0.0000000), wk =   0.0246914
        k(   80) = (   0.0000000   0.4875000   0.0000000), wk =   0.0246914
        k(   81) = (   0.0000000   0.5000000   0.0000000), wk =   0.0246914

     Dense  grid:   182381 G-vectors     FFT dimensions: (  45,  60, 144)

     Smooth grid:    64591 G-vectors     FFT dimensions: (  32,  45, 100)

     Dynamical RAM for                 wfc:       4.92 MB

     Dynamical RAM for     wfc (w. buffer):       4.92 MB

     Dynamical RAM for             U proj.:       2.95 MB

     Dynamical RAM for  U proj. (w. buff.):       2.95 MB

     Dynamical RAM for           str. fact:       2.78 MB

     Dynamical RAM for           local pot:       0.00 MB

     Dynamical RAM for          nlocal pot:      17.71 MB

     Dynamical RAM for                qrad:       1.76 MB

     Dynamical RAM for          rho,v,vnew:      17.25 MB

     Dynamical RAM for           G-vectors:      10.93 MB

     Dynamical RAM for          h,s,v(r/c):       0.29 MB

     Dynamical RAM for          <psi|beta>:       0.09 MB

     Dynamical RAM for                 psi:       9.84 MB

     Dynamical RAM for                hpsi:       9.84 MB

     Dynamical RAM for                spsi:       9.84 MB

     Dynamical RAM for      wfcinit/wfcrot:       9.88 MB

     Dynamical RAM for           addusdens:     539.89 MB

     Estimated static dynamical RAM per process >      78.70 MB

     Estimated max dynamical RAM per process >     618.59 MB

     The potential is recalculated from file :
     /home/kravt/QE/qe-7.4.1/BP/Bulk/D = 0/tmp/bulk_bp.save/charge-density


     HUBBARD ENERGY =    0.8040  (Ry)

     Adding external electric field

     Computed dipole along edir(3) : 
        Elec. dipole          0.5282 Ry au,          1.3426 Debye
        Ion. dipole           0.6311 Ry au,          1.6040 Debye
        Dipole                8.4098 Ry au,         21.3755 Debye
        Dipole field          0.1029 Ry au, 

        Potential amp.       -3.8784 Ry
        Total length         18.8500 bohr


     STARTING HUBBARD OCCUPATIONS:

     =================== HUBBARD OCCUPATIONS ===================
     ------------------------ ATOM    1 ------------------------
     Tr[ns(  1)] =   2.72563
     eigenvalues:
       0.353  0.459  0.550
     eigenvectors (columns):
      -0.998  0.008 -0.065
       0.008  1.000  0.001
      -0.065 -0.001  0.998
     occupation matrix ns (before diag.):
       0.354  0.001 -0.013
       0.001  0.459  0.000
      -0.013  0.000  0.549
     ------------------------ ATOM    2 ------------------------
     Tr[ns(  2)] =   3.43718
     eigenvalues:
       0.276  0.716  0.726
     eigenvectors (columns):
      -0.995  0.004  0.095
       0.002  1.000 -0.023
       0.095  0.023  0.995
     occupation matrix ns (before diag.):
       0.280  0.001  0.043
       0.001  0.716 -0.000
       0.043 -0.000  0.722
     ------------------------ ATOM    3 ------------------------
     Tr[ns(  3)] =   3.29913
     eigenvalues:
       0.470  0.481  0.698
     eigenvectors (columns):
       0.675  0.027 -0.738
       0.040 -0.999  0.000
       0.737  0.030  0.675
     occupation matrix ns (before diag.):
       0.594 -0.000 -0.114
      -0.000  0.481 -0.000
      -0.114 -0.000  0.574
     ------------------------ ATOM    4 ------------------------
     Tr[ns(  4)] =   3.38683
     eigenvalues:
       0.480  0.490  0.724
     eigenvectors (columns):
       0.016  0.610 -0.792
      -1.000  0.023 -0.002
       0.017  0.792  0.611
     occupation matrix ns (before diag.):
       0.636  0.001 -0.113
       0.001  0.480 -0.000
      -0.113 -0.000  0.577
     ------------------------ ATOM    5 ------------------------
     Tr[ns(  5)] =   3.38683
     eigenvalues:
       0.480  0.490  0.724
     eigenvectors (columns):
       0.016 -0.610  0.792
       1.000  0.023 -0.002
      -0.017  0.792  0.611
     occupation matrix ns (before diag.):
       0.636 -0.001  0.113
      -0.001  0.480 -0.000
       0.113 -0.000  0.577
     ------------------------ ATOM    6 ------------------------
     Tr[ns(  6)] =   3.29915
     eigenvalues:
       0.470  0.481  0.698
     eigenvectors (columns):
      -0.675  0.027  0.738
       0.040  0.999  0.000
       0.737 -0.030  0.675
     occupation matrix ns (before diag.):
       0.594  0.000  0.114
       0.000  0.481 -0.000
       0.114 -0.000  0.574
     ------------------------ ATOM    7 ------------------------
     Tr[ns(  7)] =   3.43717
     eigenvalues:
       0.276  0.716  0.726
     eigenvectors (columns):
       0.995  0.004 -0.095
       0.002 -1.000 -0.023
       0.095 -0.023  0.995
     occupation matrix ns (before diag.):
       0.280 -0.001 -0.043
      -0.001  0.716 -0.000
      -0.043 -0.000  0.722
     ------------------------ ATOM    8 ------------------------
     Tr[ns(  8)] =   2.72555
     eigenvalues:
       0.353  0.459  0.550
     eigenvectors (columns):
       0.998  0.008  0.065
       0.008 -1.000  0.001
      -0.065  0.001  0.998
     occupation matrix ns (before diag.):
       0.354 -0.001  0.013
      -0.001  0.459  0.000
       0.013  0.000  0.549

     Number of occupied Hubbard levels =   25.6975

     Atomic wfc used for Hubbard projectors are orthogonalized

     Starting wfcs are   32 randomized atomic wfcs +    8 random wfcs
     Checking if some PAW data can be deallocated... 

     Band Structure Calculation
     Davidson diagonalization with overlap

     Computing kpt #:     1  of    81
     total cpu time spent up to now is        8.6 secs

     Computing kpt #:     2  of    81
     total cpu time spent up to now is       13.7 secs

     Computing kpt #:     3  of    81
     total cpu time spent up to now is       18.8 secs

     Computing kpt #:     4  of    81
     total cpu time spent up to now is       24.2 secs

     Computing kpt #:     5  of    81
     total cpu time spent up to now is       28.9 secs

     Computing kpt #:     6  of    81
     total cpu time spent up to now is       34.2 secs

     Computing kpt #:     7  of    81
     c_bands:  1 eigenvalues not converged
     total cpu time spent up to now is       39.7 secs

     Computing kpt #:     8  of    81
     total cpu time spent up to now is       44.9 secs

     Computing kpt #:     9  of    81
     total cpu time spent up to now is       49.8 secs

     Computing kpt #:    10  of    81
     c_bands:  1 eigenvalues not converged
     total cpu time spent up to now is       55.1 secs

     Computing kpt #:    11  of    81
     c_bands:  1 eigenvalues not converged
     total cpu time spent up to now is       59.9 secs

     Computing kpt #:    12  of    81
     total cpu time spent up to now is       65.3 secs

     Computing kpt #:    13  of    81
     total cpu time spent up to now is       70.0 secs

     Computing kpt #:    14  of    81
     total cpu time spent up to now is       74.3 secs

     Computing kpt #:    15  of    81
     total cpu time spent up to now is       78.2 secs

     Computing kpt #:    16  of    81
     total cpu time spent up to now is       82.5 secs

     Computing kpt #:    17  of    81
     total cpu time spent up to now is       86.8 secs

     Computing kpt #:    18  of    81
     total cpu time spent up to now is       91.2 secs

     Computing kpt #:    19  of    81
     total cpu time spent up to now is       95.5 secs

     Computing kpt #:    20  of    81
     total cpu time spent up to now is       99.6 secs

     Computing kpt #:    21  of    81
     total cpu time spent up to now is      103.8 secs

     Computing kpt #:    22  of    81
     total cpu time spent up to now is      108.0 secs

     Computing kpt #:    23  of    81
     total cpu time spent up to now is      111.5 secs

     Computing kpt #:    24  of    81
     total cpu time spent up to now is      115.2 secs

     Computing kpt #:    25  of    81
     total cpu time spent up to now is      119.1 secs

     Computing kpt #:    26  of    81
     total cpu time spent up to now is      123.3 secs

     Computing kpt #:    27  of    81
     total cpu time spent up to now is      127.5 secs

     Computing kpt #:    28  of    81
     total cpu time spent up to now is      131.4 secs

     Computing kpt #:    29  of    81
     total cpu time spent up to now is      135.6 secs

     Computing kpt #:    30  of    81
     total cpu time spent up to now is      139.3 secs

     Computing kpt #:    31  of    81
     total cpu time spent up to now is      143.7 secs

     Computing kpt #:    32  of    81
     total cpu time spent up to now is      147.9 secs

     Computing kpt #:    33  of    81
     c_bands:  1 eigenvalues not converged
     total cpu time spent up to now is      153.6 secs

     Computing kpt #:    34  of    81
     total cpu time spent up to now is      158.4 secs

     Computing kpt #:    35  of    81
     total cpu time spent up to now is      163.7 secs

     Computing kpt #:    36  of    81
     total cpu time spent up to now is      168.7 secs

     Computing kpt #:    37  of    81
     c_bands:  1 eigenvalues not converged
     total cpu time spent up to now is      174.4 secs

     Computing kpt #:    38  of    81
     total cpu time spent up to now is      178.8 secs

     Computing kpt #:    39  of    81
     total cpu time spent up to now is      183.1 secs

     Computing kpt #:    40  of    81
     total cpu time spent up to now is      187.9 secs

     Computing kpt #:    41  of    81
     total cpu time spent up to now is      192.6 secs

     Computing kpt #:    42  of    81
     total cpu time spent up to now is      197.2 secs

     Computing kpt #:    43  of    81
     total cpu time spent up to now is      201.8 secs

     Computing kpt #:    44  of    81
     total cpu time spent up to now is      206.6 secs

     Computing kpt #:    45  of    81
     total cpu time spent up to now is      211.4 secs

     Computing kpt #:    46  of    81
     c_bands:  1 eigenvalues not converged
     total cpu time spent up to now is      216.7 secs

     Computing kpt #:    47  of    81
     total cpu time spent up to now is      221.5 secs

     Computing kpt #:    48  of    81
     total cpu time spent up to now is      226.1 secs

     Computing kpt #:    49  of    81
     total cpu time spent up to now is      230.4 secs

     Computing kpt #:    50  of    81
     total cpu time spent up to now is      234.6 secs

     Computing kpt #:    51  of    81
     total cpu time spent up to now is      239.5 secs

     Computing kpt #:    52  of    81
     total cpu time spent up to now is      244.1 secs

     Computing kpt #:    53  of    81
     total cpu time spent up to now is      249.3 secs

     Computing kpt #:    54  of    81
     total cpu time spent up to now is      254.6 secs

     Computing kpt #:    55  of    81
     total cpu time spent up to now is      258.9 secs

     Computing kpt #:    56  of    81
     total cpu time spent up to now is      263.5 secs

     Computing kpt #:    57  of    81
     total cpu time spent up to now is      268.7 secs

     Computing kpt #:    58  of    81
     total cpu time spent up to now is      273.9 secs

     Computing kpt #:    59  of    81
     c_bands:  1 eigenvalues not converged
     total cpu time spent up to now is      279.1 secs

     Computing kpt #:    60  of    81
     total cpu time spent up to now is      284.3 secs

     Computing kpt #:    61  of    81
     total cpu time spent up to now is      288.9 secs

     Computing kpt #:    62  of    81
     total cpu time spent up to now is      293.6 secs

     Computing kpt #:    63  of    81
     total cpu time spent up to now is      297.8 secs

     Computing kpt #:    64  of    81
     total cpu time spent up to now is      302.5 secs

     Computing kpt #:    65  of    81
     total cpu time spent up to now is      307.3 secs

     Computing kpt #:    66  of    81
     c_bands:  1 eigenvalues not converged
     total cpu time spent up to now is      312.7 secs

     Computing kpt #:    67  of    81
     total cpu time spent up to now is      317.6 secs

     Computing kpt #:    68  of    81
     total cpu time spent up to now is      322.0 secs

     Computing kpt #:    69  of    81
     total cpu time spent up to now is      326.8 secs

     Computing kpt #:    70  of    81
     total cpu time spent up to now is      331.6 secs

     Computing kpt #:    71  of    81
     total cpu time spent up to now is      336.7 secs

     Computing kpt #:    72  of    81
     total cpu time spent up to now is      341.8 secs

     Computing kpt #:    73  of    81
     total cpu time spent up to now is      347.0 secs

     Computing kpt #:    74  of    81
     c_bands:  1 eigenvalues not converged
     total cpu time spent up to now is      352.5 secs

     Computing kpt #:    75  of    81
     c_bands:  1 eigenvalues not converged
     total cpu time spent up to now is      357.8 secs

     Computing kpt #:    76  of    81
     total cpu time spent up to now is      362.9 secs

     Computing kpt #:    77  of    81
     total cpu time spent up to now is      369.0 secs

     Computing kpt #:    78  of    81
     total cpu time spent up to now is      377.2 secs

     Computing kpt #:    79  of    81
     total cpu time spent up to now is      388.4 secs

     Computing kpt #:    80  of    81
     c_bands:  1 eigenvalues not converged
     total cpu time spent up to now is      401.2 secs

     Computing kpt #:    81  of    81
     c_bands:  2 eigenvalues not converged
     total cpu time spent up to now is      406.9 secs

     ethr =  1.25E-11,  avg # of iterations = 83.0

     total cpu time spent up to now is      406.9 secs

     End of band structure calculation

          k = 0.5000 0.0000 0.0000 (  8092 PWs)   bands (ev):

    -7.4835  -7.4834  -6.5291  -6.5284  -3.6278  -3.6273  -2.5377  -2.5346
     0.1307   0.1310   1.1286   1.1300   2.9982   2.9987   3.6524   3.6530
     4.5757   4.5758   5.0902   5.0912   7.2062   7.2066   7.5665   7.5668
     8.5456   8.5456   9.5060   9.5060  10.7679  10.7680  11.5325  11.5327
    13.6473  13.6475  15.7416  15.7422  16.5002  16.5003  16.7807  16.7809

          k = 0.4875 0.0000 0.0000 (  8086 PWs)   bands (ev):

    -7.6266  -7.3371  -6.6625  -6.3929  -3.7750  -3.4769  -2.6734  -2.3966
     0.0826   0.1739   1.0889   1.1642   2.9449   3.0479   3.6113   3.7018
     4.5269   4.6264   5.0839   5.1031   7.1400   7.2648   7.5763   7.5775
     8.4680   8.6276   9.4066   9.6106  10.6849  10.8577  11.4276  11.6346
    13.5923  13.7103  15.6823  15.7769  16.4907  16.4992  16.5256  17.0341

          k = 0.4750 0.0000 0.0000 (  8080 PWs)   bands (ev):

    -7.7664  -7.1875  -6.7940  -6.2552  -3.9190  -3.3230  -2.8082  -2.2552
     0.0300   0.2111   1.0440   1.1927   2.8878   3.0922   3.5786   3.7577
     4.4837   4.6731   5.0889   5.1171   7.0699   7.3125   7.6033   7.6099
     8.3954   8.7136   9.3127   9.7202  10.6097  10.9532  11.3208  11.7326
    13.5454  13.7806  15.5846  15.7938  16.2880  16.4807  16.4923  17.1894

          k = 0.4625 0.0000 0.0000 (  8076 PWs)   bands (ev):

    -7.9028  -7.0347  -6.9230  -6.1157  -4.0597  -3.1660  -2.9405  -2.1120
    -0.0259   0.2416   0.9957   1.2139   2.8278   3.1306   3.5555   3.8192
     4.4484   4.7085   5.1135   5.1302   6.9995   7.3519   7.6392   7.6653
     8.3291   8.8034   9.2245   9.8344  10.5432  11.0535  11.2128  11.8251
    13.5065  13.8575  15.4331  15.7954  16.1039  16.4550  16.4816  17.1580

          k = 0.4500 0.0000 0.0000 (  8076 PWs)   bands (ev):

    -8.0358  -7.0496  -6.8789  -5.9746  -4.1970  -3.0700  -3.0058  -1.9675
    -0.0842   0.2649   0.9452   1.2273   2.7651   3.1621   3.5425   3.8854
     4.4226   4.7277   5.1408   5.1635   6.9308   7.3896   7.6798   7.7360
     8.2715   8.8970   9.1422   9.9529  10.4866  11.1045  11.1576  11.9104
    13.4747  13.9402  15.2285  15.7827  15.9708  16.4155  16.4689  17.0677

          k = 0.4375 0.0000 0.0000 (  8064 PWs)   bands (ev):

    -8.1654  -7.1736  -6.7201  -5.8323  -4.3308  -3.1967  -2.8427  -1.8223
    -0.1436   0.2805   0.8935   1.2327   2.7000   3.1862   3.5400   3.9545
     4.4072   4.7320   5.1479   5.2382   6.8653   7.4317   7.7189   7.8157
     8.2264   8.9943   9.0662  10.0753  10.4407  10.9965  11.2643  11.9866
    13.4479  14.0277  14.9942  15.7566  15.8668  16.3558  16.4554  16.9655

          k = 0.4250 0.0000 0.0000 (  8064 PWs)   bands (ev):

    -8.2914  -7.2948  -6.5584  -5.6889  -4.4611  -3.3205  -2.6766  -1.6771
    -0.2030   0.2884   0.8415   1.2302   2.6328   3.2025   3.5476   4.0246
     4.4028   4.7276   5.1509   5.3331   6.8041   7.4820   7.7480   7.9001
     8.2001   8.9972   9.0955  10.2008  10.4065  10.8891  11.3722  12.0513
    13.4223  14.1187  14.7568  15.7180  15.7622  16.2691  16.4415  16.8510

          k = 0.4125 0.0000 0.0000 (  8056 PWs)   bands (ev):

    -8.4139  -7.4132  -6.3939  -5.5448  -4.5879  -3.4413  -2.5077  -1.5331
    -0.2608   0.2885   0.7902   1.2200   2.5638   3.2112   3.5646   4.0928
     4.4097   4.7214   5.1497   5.4433   6.7476   7.5427   7.7586   7.9865
     8.1983   8.9365   9.2005  10.3290  10.3848  10.7829  11.4788  12.1016
    13.3916  14.2118  14.5384  15.6248  15.6683  16.1632  16.4269  16.7138

          k = 0.4000 0.0000 0.0000 (  8064 PWs)   bands (ev):

    -8.5328  -7.5287  -6.2266  -5.4002  -4.7112  -3.5590  -2.3361  -1.3923
    -0.3145   0.2812   0.7405   1.2027   2.4932   3.2125   3.5895   4.1549
     4.4279   4.7200   5.1445   5.5655   6.6965   7.6146   7.7480   8.0733
     8.2202   8.8867   9.3094  10.3760  10.4587  10.6784  11.5802  12.1346
    13.3481  14.3052  14.3591  15.4282  15.6094  16.0689  16.4095  16.6252

          k = 0.3875 0.0000 0.0000 (  8058 PWs)   bands (ev):

    -8.6482  -7.6412  -6.0568  -5.2555  -4.8308  -3.6735  -2.1620  -1.2578
    -0.3607   0.2667   0.6932   1.1792   2.4215   3.2071   3.6209   4.2059
     4.4572   4.7297   5.1357   5.6977   6.6510   7.6978   7.7210   8.1594
     8.2553   8.8529   9.4222  10.3801  10.5763  10.5885  11.6673  12.1500
    13.2887  14.2341  14.3966  15.1738  15.5431  16.0046  16.3855  16.5676

          k = 0.3750 0.0000 0.0000 (  8050 PWs)   bands (ev):

    -8.7598  -7.7507  -5.8845  -5.1112  -4.9469  -3.7848  -1.9856  -1.1357
    -0.3932   0.2458   0.6491   1.1500   2.3490   3.1958   3.6565   4.2414
     4.4971   4.7557   5.1240   5.8383   6.6112   7.6849   7.7923   8.2441
     8.2880   8.8428   9.5389  10.3937  10.4803  10.7160  11.7197  12.1583
    13.2225  14.1662  14.4834  14.8823  15.4710  15.9659  16.3497  16.5251

          k = 0.3625 0.0000 0.0000 (  8050 PWs)   bands (ev):

    -8.8679  -7.8571  -5.7099  -5.0594  -4.9675  -3.8928  -1.8072  -1.0356
    -0.4019   0.2190   0.6090   1.1162   2.2762   3.1796   3.6944   4.2595
     4.5470   4.7998   5.1105   5.9864   6.5773   7.6456   7.8974   8.3044
     8.3271   8.8646   9.6594  10.3619  10.4453  10.8361  11.7052  12.1871
    13.1684  14.1432  14.5619  14.5717  15.3946  15.9441  16.3019  16.4772

          k = 0.3500 0.0000 0.0000 (  8046 PWs)   bands (ev):

    -8.9722  -7.9603  -5.5332  -5.1682  -4.8252  -3.9976  -1.6274  -0.9697
    -0.3742   0.1873   0.5737   1.0784   2.2034   3.1594   3.7322   4.2627
     4.6056   4.8596   5.0966   6.1413   6.5491   7.6070   8.0122   8.2981
     8.4082   8.9207   9.7835  10.2711  10.4848  10.9364  11.6192  12.2530
    13.1402  14.1345  14.2670  14.6283  15.3149  15.9330  16.2509  16.3503

          k = 0.3375 0.0000 0.0000 (  8036 PWs)   bands (ev):

    -9.0728  -8.0603  -5.3546  -5.2733  -4.6845  -4.0989  -1.4472  -0.9426
    -0.3050   0.1513   0.5441   1.0375   2.1309   3.1363   3.7681   4.2553
     4.6708   4.9305   5.0847   6.3022   6.5262   7.5720   8.1356   8.2724
     8.4878   9.0057   9.9107  10.1778  10.5417  10.9812  11.5181  12.3434
    13.1397  13.9042  14.1971  14.6783  15.2327  15.9256  16.0981  16.2054

          k = 0.3250 0.0000 0.0000 (  8042 PWs)   bands (ev):

    -9.1697  -8.1570  -5.3748  -5.1743  -4.5462  -4.1969  -1.2705  -0.9424
    -0.2027   0.1118   0.5208   0.9942   2.0592   3.1112   3.8002   4.2420
     4.7387   5.0082   5.0785   6.4685   6.5080   7.5431   8.2338   8.2661
     8.5664   9.1118  10.0403  10.0863  10.6112  10.9059  11.4910  12.4434
    13.1604  13.5844  14.2261  14.7082  15.1483  15.7945  15.9384  16.1693

          k = 0.3125 0.0000 0.0000 (  8046 PWs)   bands (ev):

    -9.2629  -8.2504  -5.4725  -4.9926  -4.4108  -4.2914  -1.1174  -0.9359
    -0.0811   0.0697   0.5049   0.9491   1.9885   3.0851   3.8271   4.2260
     4.8014   5.0859   5.0890   6.4937   6.6396   7.5222   8.1878   8.4009
     8.6457   9.2325   9.9971  10.1705  10.6919  10.7181  11.5472  12.5421
    13.1660  13.3001  14.2575  14.7162  15.0621  15.5130  15.9278  16.1417

          k = 0.3000 0.0000 0.0000 (  8042 PWs)   bands (ev):

    -9.3523  -8.3405  -5.5666  -4.8099  -4.3824  -4.2789  -1.0671  -0.8348
     0.0256   0.0499   0.4974   0.9028   1.9191   3.0589   3.8480   4.2100
     4.8462   5.1191   5.1704   6.4821   6.8146   7.5115   8.1379   8.5354
     8.7290   9.3638   9.9106  10.2897  10.4904  10.7826  11.6337  12.6142
    12.9446  13.2854  14.2807  14.7025  14.9739  15.2412  15.9060  16.1194

          k = 0.2875 0.0000 0.0000 (  8039 PWs)   bands (ev):

    -9.4379  -8.4272  -5.6569  -4.6264  -4.4700  -4.1513  -1.0892  -0.6642
    -0.0199   0.1830   0.5003   0.8558   1.8512   3.0336   3.8623   4.1959
     4.8654   5.1850   5.2508   6.4720   6.9925   7.5124   8.0867   8.6602
     8.8229   9.5030   9.8268  10.1898  10.4637  10.8825  11.7210  12.5036
    12.8392  13.3500  14.2876  14.6693  14.8841  14.9905  15.8546  16.0983

          k = 0.2750 0.0000 0.0000 (  8045 PWs)   bands (ev):

    -9.5197  -8.5104  -5.7435  -4.5540  -4.4428  -4.0285  -1.1248  -0.4805
    -0.0662   0.3115   0.5174   0.8086   1.7852   3.0100   3.8701   4.1852
     4.8651   5.2765   5.3286   6.4621   7.1715   7.5261   8.0358   8.7644
     8.9323   9.6483   9.7460   9.9388  10.5870  10.9904  11.7945  12.2204
    12.9028  13.4290  14.2710  14.6194  14.7682  14.7935  15.7663  16.0758

          k = 0.2625 0.0000 0.0000 (  8053 PWs)   bands (ev):

    -9.5978  -8.5902  -5.8263  -4.6344  -4.2596  -3.9113  -1.1622  -0.2937
    -0.1128   0.4215   0.5606   0.7615   1.7210   2.9891   3.8716   4.1793
     4.8543   5.3835   5.4031   6.4516   7.3490   7.5528   7.9872   8.8475
     9.0398   9.6675   9.7075   9.7991  10.7102  11.1054  11.8417  11.9254
    12.9817  13.5174  14.2296  14.5549  14.5765  14.7035  15.6586  16.0508

          k = 0.2500 0.0000 0.0000 (  8049 PWs)   bands (ev):

    -9.6721  -8.6664  -5.9053  -4.7113  -4.0775  -3.8000  -1.1981  -0.1591
    -0.1064   0.4950   0.6467   0.7151   1.6591   2.9716   3.8675   4.1796
     4.8382   5.4732   5.4996   6.4400   7.5197   7.5906   7.9437   8.9109
     9.0832   9.5700   9.5924   9.9534  10.8124  11.2265  11.6478  11.8598
    13.0517  13.6112  14.1762  14.4084  14.4769  14.6164  15.5616  16.0231

          k = 0.2375 0.0000 0.0000 (  8057 PWs)   bands (ev):

    -9.7425  -8.7392  -5.9806  -4.7846  -3.8976  -3.6953  -1.2305  -0.2049
     0.0799   0.5482   0.6694   0.7584   1.5994   2.9586   3.8585   4.1870
     4.8192   5.5385   5.6206   6.4279   7.6339   7.6722   7.9111   8.8997
     9.0533   9.5202   9.6025  10.1109  10.8449  11.3528  11.4485  11.8325
    13.1062  13.6999  14.1299  14.2636  14.3866  14.5336  15.4944  15.9931

          k = 0.2250 0.0000 0.0000 (  8071 PWs)   bands (ev):

    -9.8092  -8.8084  -6.0520  -4.8542  -3.7214  -3.5970  -1.2579  -0.2498
     0.2636   0.6023   0.6250   0.8734   1.5422   2.9509   3.8455   4.2028
     4.7985   5.5986   5.7431   6.4170   7.6684   7.7803   7.9031   8.7720
     9.0941   9.4510   9.7281  10.2710  10.7264  11.4061  11.4834  11.7623
    13.1418  13.7431  14.0840  14.2003  14.2864  14.4548  15.4600  15.9609

          k = 0.2125 0.0000 0.0000 (  8059 PWs)   bands (ev):

    -9.8721  -8.8740  -6.1197  -4.9202  -3.5545  -3.5013  -1.2790  -0.2935
     0.4430   0.5818   0.6641   0.9846   1.4875   2.9494   3.8294   4.2278
     4.7769   5.6529   5.8626   6.4104   7.6751   7.7940   7.9376   8.6934
     9.1553   9.3848   9.8776  10.4328  10.4958  11.4824  11.6173  11.6568
    13.1538  13.6679  14.1034  14.1790  14.2386  14.3788  15.4520  15.9270

          k = 0.2000 0.0000 0.0000 (  8059 PWs)   bands (ev):

    -9.9313  -8.9360  -6.1835  -4.9825  -3.4367  -3.3700  -1.2922  -0.3356
     0.5403   0.6153   0.7361   1.0896   1.4355   2.9550   3.8109   4.2629
     4.7548   5.7013   5.9720   6.4150   7.6557   7.6830   8.0116   8.7290
     9.2190   9.3216  10.0252  10.2328  10.5958  11.5175  11.6136  11.7536
    13.1233  13.5360  14.0665  14.1922  14.3045  14.3335  15.4615  15.8915

          k = 0.1875 0.0000 0.0000 (  8059 PWs)   bands (ev):

    -9.9866  -8.9944  -6.2436  -5.0412  -3.3588  -3.2146  -1.2960  -0.3761
     0.5006   0.7721   0.8245   1.1880   1.3863   2.9688   3.7908   4.3086
     4.7325   5.7436   6.0590   6.4423   7.4874   7.6244   8.1094   8.8444
     9.2613   9.2796   9.9717  10.1511  10.7594  11.3958  11.7440  11.8912
    13.0152  13.4492  13.9506  14.2314  14.3018  14.4651  15.4804  15.8542

          k = 0.1750 0.0000 0.0000 (  8059 PWs)   bands (ev):

   -10.0383  -9.0491  -6.2998  -5.0961  -3.2917  -3.0663  -1.2885  -0.4146
     0.4629   0.8881   0.9504   1.2811   1.3399   2.9916   3.7697   4.3652
     4.7104   5.7793   6.1116   6.5041   7.2551   7.5894   8.2210   8.9891
     9.2042   9.3172   9.7476  10.2268  10.9228  11.3061  11.8829  12.0291
    12.8388  13.4224  13.8324  14.1589  14.4204  14.6180  15.5020  15.8151

          k = 0.1625 0.0000 0.0000 (  8063 PWs)   bands (ev):

   -10.0861  -9.1002  -6.3521  -5.1474  -3.2327  -2.9299  -1.2679  -0.4511
     0.4273   0.9882   1.0832   1.2964   1.3717   3.0245   3.7482   4.4324
     4.6887   5.8083   6.1316   6.5982   7.0102   7.5540   8.3415   9.1278
     9.1502   9.2489   9.6593  10.2214  11.0853  11.2887  12.0175  12.1660
    12.6419  13.4227  13.7131  14.0869  14.5436  14.7803  15.5219  15.7735

          k = 0.1500 0.0000 0.0000 (  8059 PWs)   bands (ev):

   -10.1303  -9.1475  -6.4006  -5.1949  -3.1811  -2.8081  -1.2326  -0.4853
     0.3939   1.0911   1.1978   1.2560   1.4636   3.0684   3.7268   4.5096
     4.6677   5.8298   6.1316   6.7114   6.7646   7.5197   8.4675   9.0410
     9.0996   9.2549   9.7368  10.1317  11.2462  11.3499  12.1207  12.3005
    12.4769  13.4316  13.5939  14.0151  14.6652  14.9402  15.5413  15.7285

          k = 0.1375 0.0000 0.0000 (  8061 PWs)   bands (ev):

   -10.1708  -9.1912  -6.4453  -5.2386  -3.1364  -2.7031  -1.1816  -0.5171
     0.3628   1.1959   1.2186   1.2908   1.5580   3.1238   3.7060   4.5957
     4.6477   5.8422   6.1220   6.5253   6.8327   7.4873   8.5957   8.8104
     9.0533   9.3440   9.8628  10.0090  11.4046  11.4540  12.1020  12.4306
    12.4545  13.4425  13.4766  13.9436  14.7715  15.0818  15.5758  15.6790

          k = 0.1250 0.0000 0.0000 (  8065 PWs)   bands (ev):

   -10.2077  -9.2311  -6.4860  -5.2786  -3.0979  -2.6158  -1.1154  -0.5465
     0.3342   1.1843   1.2939   1.3718   1.6518   3.1908   3.6860   4.6287
     4.6890   5.8415   6.1080   6.3003   6.9560   7.4572   8.5792   8.7212
     9.0140   9.4110   9.7740  10.1067  11.5329  11.5597  12.0208  12.5534
    12.5609  13.3637  13.4530  13.8721  14.8330  15.1943  15.6235  15.6570

          k = 0.1125 0.0000 0.0000 (  8061 PWs)   bands (ev):

   -10.2409  -9.2673  -6.5230  -5.3148  -3.0652  -2.5456  -1.0356  -0.5734
     0.3081   1.1531   1.3654   1.4640   1.7395   3.2687   3.6671   4.6110
     4.7876   5.8130   6.0924   6.1071   7.0775   7.4300   8.3579   8.8279
     8.9957   9.4507   9.6027  10.3044  11.4939  11.7104  12.0570  12.6634
    12.6957  13.2606  13.4626  13.8009  14.8143  15.3004  15.5612  15.7950

          k = 0.1000 0.0000 0.0000 (  8067 PWs)   bands (ev):

   -10.2705  -9.2998  -6.5560  -5.3473  -3.0377  -2.4912  -0.9458  -0.5976
     0.2845   1.1251   1.4091   1.5712   1.8171   3.3557   3.6497   4.5948
     4.8889   5.7192   5.9858   6.0767   7.1940   7.4063   8.1509   8.8648
     9.0472   9.3614   9.5449  10.5115  11.3660  11.8555  12.2020  12.7486
    12.8322  13.1792  13.4720  13.7301  14.7198  15.4210  15.4925  15.9651

          k = 0.0875 0.0000 0.0000 (  8067 PWs)   bands (ev):

   -10.2965  -9.3284  -6.5852  -5.3759  -3.0148  -2.4501  -0.8501  -0.6190
     0.2636   1.1003   1.4382   1.6813   1.8829   3.4488   3.6339   4.5802
     4.9903   5.5636   5.9357   6.0618   7.2993   7.3905   7.9616   8.8452
     9.1530   9.1840   9.5729  10.7057  11.2347  11.9939  12.3859  12.7842
    12.9594  13.1442  13.4838  13.6601  14.5811  15.4198  15.5495  15.9136

          k = 0.0750 0.0000 0.0000 (  8071 PWs)   bands (ev):

   -10.3190  -9.3533  -6.6105  -5.4008  -2.9960  -2.4198  -0.7534  -0.6378
     0.2455   1.0788   1.4585   1.7877   1.9371   3.5441   3.6199   4.5673
     5.0887   5.3975   5.9088   6.0482   7.3468   7.4273   7.7925   8.8146
     9.0096   9.2652   9.6029  10.8212  11.1892  12.1240  12.5801  12.7568
    13.0649  13.1695  13.5038  13.5915  14.4249  15.3469  15.6744  15.8636

          k = 0.0625 0.0000 0.0000 (  8075 PWs)   bands (ev):

   -10.3380  -9.3743  -6.6319  -5.4218  -2.9810  -2.3979  -0.6607  -0.6537
     0.2300   1.0606   1.4729   1.8856   1.9809   3.6078   3.6370   4.5563
     5.1809   5.2434   5.8862   6.0362   7.3379   7.5134   7.6462   8.7834
     8.8500   9.3710   9.6288  10.7802  11.3151  12.2439  12.6947  12.7701
    13.1326  13.2273  13.5252  13.5415  14.2718  15.2778  15.7489  15.7861

          k = 0.0500 0.0000 0.0000 (  8083 PWs)   bands (ev):

   -10.3535  -9.3916  -6.6494  -5.4391  -2.9692  -2.3825  -0.6668  -0.5768
     0.2173   1.0456   1.4829   1.9687   2.0184   3.5978   3.7225   4.5471
     5.1092   5.2640   5.8640   6.0262   7.3259   7.5244   7.5934   8.7109
     8.7544   9.4650   9.6498  10.6839  11.5133  12.3514  12.6261  12.9341
    13.1585  13.2902  13.4629  13.6014  14.1413  15.2162  15.5308  15.7946

          k = 0.0375 0.0000 0.0000 (  8081 PWs)   bands (ev):

   -10.3655  -9.4050  -6.6630  -5.4525  -2.9604  -2.3720  -0.6770  -0.5062
     0.2074   1.0340   1.4897   2.0209   2.0631   3.5899   3.7956   4.5399
     5.0004   5.3340   5.8425   6.0182   7.3159   7.4288   7.6600   8.5969
     8.7294   9.5433   9.6659  10.5933  11.7220  12.4428  12.5646  12.9973
    13.2054  13.3458  13.4069  13.6720  14.0513  15.1651  15.3265  15.7721

          k = 0.0250 0.0000 0.0000 (  8095 PWs)   bands (ev):

   -10.3740  -9.4146  -6.6728  -5.4621  -2.9543  -2.3653  -0.6843  -0.4527
     0.2003   1.0257   1.4940   2.0435   2.1119   3.5842   3.8517   4.5347
     4.9200   5.3877   5.8238   6.0125   7.3085   7.3602   7.7101   8.5120
     8.7099   9.6022   9.6771  10.5235  11.9199  12.5035  12.5277  12.9312
    13.3023  13.3605  13.3889  13.7358  14.0118  15.1269  15.1497  15.7565

          k = 0.0125 0.0000 0.0000 (  8099 PWs)   bands (ev):

   -10.3792  -9.4204  -6.6786  -5.4678  -2.9507  -2.3616  -0.6887  -0.4193
     0.1961   1.0207   1.4964   2.0544   2.1445   3.5808   3.8870   4.5316
     4.8707   5.4217   5.8107   6.0090   7.3041   7.3189   7.7413   8.4596
     8.6974   9.6390   9.6837  10.4800  12.0808  12.4823  12.5653  12.8328
    13.3296  13.3724  13.4155  13.7795  14.0119  15.0225  15.1032  15.7472

          k = 0.0000 0.0000 0.0000 (  8099 PWs)   bands (ev):

   -10.3809  -9.4223  -6.6806  -5.4697  -2.9495  -2.3603  -0.6901  -0.4079
     0.1946   1.0190   1.4971   2.0579   2.1558   3.5797   3.8991   4.5305
     4.8541   5.4334   5.8060   6.0078   7.3026   7.3051   7.7520   8.4418
     8.6931   9.6515   9.6859  10.4653  12.1499  12.4722  12.5814  12.7827
    13.3184  13.3958  13.4246  13.7949  14.0190  14.9745  15.0952  15.7441

          k = 0.0000 0.0094 0.0000 (  8101 PWs)   bands (ev):

   -10.3805  -9.4214  -6.6815  -5.4697  -2.9508  -2.3697  -0.6803  -0.4076
     0.1926   1.0230   1.4947   2.0528   2.1565   3.5861   3.8986   4.5369
     4.8545   5.4336   5.7996   6.0099   7.2879   7.3236   7.7492   8.4402
     8.6950   9.6501   9.6856  10.4649  12.1440  12.4608  12.5716  12.7893
    13.3190  13.4116  13.4212  13.8021  14.0152  14.9790  15.1014  15.7460

          k = 0.0000 0.0189 0.0000 (  8093 PWs)   bands (ev):

   -10.3794  -9.4189  -6.6843  -5.4694  -2.9546  -2.3970  -0.6518  -0.4069
     0.1868   1.0349   1.4878   2.0377   2.1585   3.6051   3.8971   4.5559
     4.8557   5.4340   5.7810   6.0158   7.2759   7.3470   7.7409   8.4354
     8.7007   9.6460   9.6848  10.4639  12.1264  12.4291  12.5440  12.8079
    13.3224  13.4113  13.4548  13.8229  14.0045  14.9923  15.1196  15.7515

          k = 0.0000 0.0283 0.0000 (  8095 PWs)   bands (ev):

   -10.3775  -9.4147  -6.6890  -5.4690  -2.9609  -2.4403  -0.6070  -0.4056
     0.1775   1.0544   1.4769   2.0134   2.1618   3.6361   3.8946   4.5869
     4.8578   5.4347   5.7513   6.0248   7.2676   7.3738   7.7273   8.4274
     8.7098   9.6392   9.6837  10.4621  12.0973  12.3829  12.5019  12.8366
    13.3293  13.3953  13.5177  13.8557  13.9885  15.0144  15.1483  15.7608

          k = 0.0000 0.0378 0.0000 (  8103 PWs)   bands (ev):

   -10.3749  -9.4089  -6.6957  -5.4685  -2.9694  -2.4969  -0.5496  -0.4038
     0.1656   1.0810   1.4629   1.9814   2.1665   3.6779   3.8910   4.6289
     4.8607   5.4357   5.7122   6.0362   7.2628   7.4037   7.7085   8.4161
     8.7217   9.6299   9.6827  10.4597  12.0570  12.3284  12.4481  12.8742
    13.3388  13.3737  13.5927  13.8983  13.9708  15.0450  15.1853  15.7737

          k = 0.0000 0.0472 0.0000 (  8093 PWs)   bands (ev):

   -10.3715  -9.4014  -6.7042  -5.4678  -2.9799  -2.5643  -0.4840  -0.4015
     0.1529   1.1137   1.4473   1.9432   2.1725   3.7294   3.8864   4.6806
     4.8646   5.4369   5.6648   6.0497   7.2614   7.4361   7.6848   8.4018
     8.7359   9.6183   9.6820  10.4566  12.0064  12.2709  12.3850  12.9200
    13.3472  13.3491  13.6710  13.9485  13.9574  15.0841  15.2280  15.7858

          k = 0.0000 0.0567 0.0000 (  8095 PWs)   bands (ev):

   -10.3675  -9.3922  -6.7148  -5.4670  -2.9920  -2.6396  -0.4162  -0.3988
     0.1425   1.1504   1.4321   1.9007   2.1798   3.7893   3.8808   4.7401
     4.8699   5.4384   5.6104   6.0652   7.2630   7.4708   7.6566   8.3843
     8.7512   9.6046   9.6824  10.4529  11.9468  12.2136  12.3146  12.9732
    13.3169  13.3583  13.7384  13.9610  14.0043  15.1311  15.2730  15.7628

          k = 0.0000 0.0661 0.0000 (  8083 PWs)   bands (ev):

   -10.3627  -9.3813  -6.7274  -5.4660  -3.0053  -2.7209  -0.3955  -0.3544
     0.1402   1.1874   1.4213   1.8561   2.1884   3.8562   3.8741   4.8036
     4.8791   5.4401   5.5502   6.0827   7.2675   7.5072   7.6243   8.3639
     8.7669   9.5891   9.6843  10.4486  11.8801  12.1582  12.2383  13.0323
    13.2844  13.3644  13.7756  14.0010  14.0643  15.1860  15.3164  15.7141

          k = 0.0000 0.0756 0.0000 (  8089 PWs)   bands (ev):

   -10.3572  -9.3688  -6.7421  -5.4649  -3.0196  -2.8062  -0.3918  -0.3089
     0.1546   1.2166   1.4221   1.8116   2.1983   3.8663   3.9288   4.8526
     4.9088   5.4421   5.4856   6.1023   7.2746   7.5449   7.5882   8.3404
     8.7817   9.5721   9.6884  10.4438  11.8084  12.1054  12.1575  13.0918
    13.2551  13.3653  13.7833  14.0762  14.1273  15.2482  15.3533  15.6637

          k = 0.0000 0.0850 0.0000 (  8085 PWs)   bands (ev):

   -10.3510  -9.3546  -6.7590  -5.4636  -3.0343  -2.8941  -0.3877  -0.2893
     0.1939   1.2275   1.4446   1.7698   2.2095   3.8575   4.0058   4.8689
     4.9753   5.4183   5.4442   6.1242   7.2841   7.5488   7.5835   8.3142
     8.7948   9.5538   9.6952  10.4386  11.7337  12.0554  12.0733  13.1286
    13.2525  13.3592  13.7802  14.1681  14.1923  15.3175  15.3767  15.6198

          k = 0.0000 0.0945 0.0000 (  8079 PWs)   bands (ev):

   -10.3442  -9.3387  -6.7780  -5.4623  -3.0490  -2.9835  -0.3832  -0.2975
     0.2585   1.2169   1.4910   1.7329   2.2220   3.8476   4.0862   4.8753
     5.0520   5.3514   5.4465   6.1485   7.2958   7.5066   7.6227   8.2854
     8.8051   9.5346   9.7052  10.4331  11.6577  11.9865  12.0083  13.1129
    13.3062  13.3455  13.7770  14.2587  14.2649  15.3780  15.3934  15.5914

          k = 0.0000 0.1039 0.0000 (  8081 PWs)   bands (ev):

   -10.3368  -9.3212  -6.7993  -5.4608  -3.0736  -3.0633  -0.3783  -0.3279
     0.3413   1.1913   1.5540   1.7034   2.2358   3.8365   4.1688   4.8785
     5.1218   5.2952   5.4489   6.1753   7.3095   7.4621   7.6620   8.2542
     8.8122   9.5149   9.7186  10.4274  11.5814  11.8977  11.9644  13.0724
    13.3243  13.3885  13.7771  14.3262  14.3607  15.3536  15.4755  15.5833

          k = 0.0000 0.1134 0.0000 (  8083 PWs)   bands (ev):

   -10.3287  -9.3021  -6.8229  -5.4593  -3.1633  -3.0771  -0.3736  -0.3730
     0.4341   1.1570   1.6246   1.6856   2.2508   3.8243   4.2523   4.8780
     5.1420   5.2923   5.4514   6.2047   7.3251   7.4156   7.7010   8.2210
     8.8156   9.4949   9.7353  10.4216  11.5059  11.8076  11.9241  13.0242
    13.2971  13.4820  13.7803  14.3944  14.4521  15.3119  15.5633  15.5895

          k = 0.0000 0.1228 0.0000 (  8091 PWs)   bands (ev):

   -10.3201  -9.2813  -6.8488  -5.4577  -3.2522  -3.0896  -0.4299  -0.3674
     0.5291   1.1198   1.6583   1.7216   2.2670   3.8110   4.3356   4.8709
     5.1007   5.3574   5.4540   6.2370   7.3425   7.3677   7.7391   8.1863
     8.8155   9.4749   9.7549  10.4159  11.4316  11.7167  11.8876  12.9726
    13.2655  13.5827  13.7853  14.4634  14.5359  15.2632  15.6028  15.6565

          k = 0.0000 0.1322 0.0000 (  8081 PWs)   bands (ev):

   -10.3109  -9.2588  -6.8770  -5.4562  -3.3398  -3.1008  -0.4937  -0.3615
     0.6175   1.0871   1.6582   1.8064   2.2844   3.7965   4.4167   4.8517
     5.0540   5.4402   5.4567   6.2724   7.3188   7.3616   7.7754   8.1508
     8.8124   9.4553   9.7767  10.4106  11.3591  11.6253  11.8554  12.9189
    13.2312  13.6886  13.7901  14.5331  14.6091  15.2143  15.6205  15.7545

          k = 0.0000 0.1417 0.0000 (  8085 PWs)   bands (ev):

   -10.3013  -9.2348  -6.9076  -5.4547  -3.4256  -3.1102  -0.5629  -0.3553
     0.6854   1.0719   1.6640   1.8993   2.3031   3.7808   4.4920   4.8164
     5.0229   5.4592   5.5257   6.3113   7.2692   7.3822   7.8089   8.1156
     8.8070   9.4364   9.7997  10.4058  11.2885  11.5337  11.8280  12.8640
    13.1958  13.7929  13.7989  14.6037  14.6685  15.1691  15.6430  15.8567

          k = 0.0000 0.1511 0.0000 (  8075 PWs)   bands (ev):

   -10.2912  -9.2091  -6.9404  -5.4533  -3.5092  -3.1175  -0.6363  -0.3489
     0.7147   1.0919   1.6781   1.9969   2.3229   3.7640   4.5512   4.7756
     5.0095   5.4618   5.6095   6.3540   7.2193   7.4042   7.8378   8.0821
     8.8005   9.4184   9.8229  10.4018  11.2201  11.4424  11.8055  12.8085
    13.1605  13.7920  13.9127  14.6753  14.7112  15.1305  15.6712  15.9627

          k = 0.0000 0.1606 0.0000 (  8074 PWs)   bands (ev):

   -10.2807  -9.1819  -6.9756  -5.4520  -3.5903  -3.1227  -0.7129  -0.3422
     0.7018   1.1502   1.7011   2.0983   2.3438   3.7460   4.5657   4.7639
     5.0084   5.4644   5.6894   6.4012   7.1695   7.4274   7.8592   8.0532
     8.7942   9.4016   9.8453  10.3987  11.1541  11.3514  11.7883  12.7528
    13.1261  13.7859  14.0290  14.7352  14.7482  15.1010  15.7063  16.0718

          k = 0.0000 0.1700 0.0000 (  8068 PWs)   bands (ev):

   -10.2698  -9.1531  -7.0130  -5.4511  -3.6686  -3.1254  -0.7918  -0.3355
     0.6618   1.2303   1.7337   2.2028   2.3658   3.7268   4.5212   4.7993
     5.0159   5.4668   5.7632   6.4532   7.1202   7.4518   7.8693   8.0324
     8.7896   9.3862   9.8660  10.3966  11.0906  11.2611  11.7766  12.6972
    13.0933  13.7735  14.1472  14.7398  14.8229  15.0819  15.7480  16.1406

          k = 0.0000 0.1795 0.0000 (  8068 PWs)   bands (ev):

   -10.2587  -9.1227  -7.0525  -5.4504  -3.7438  -3.1255  -0.8724  -0.3285
     0.6086   1.3172   1.7771   2.3099   2.3890   3.7064   4.4489   4.8500
     5.0323   5.4690   5.8293   6.5107   7.0717   7.4771   7.8653   8.0223
     8.7882   9.3725   9.8842  10.3954  11.0296  11.1716  11.7704  12.6422
    13.0627  13.7541  14.2662  14.7267  14.8999  15.0734  15.7955  16.0827

          k = 0.0000 0.1889 0.0000 (  8068 PWs)   bands (ev):

   -10.2473  -9.0907  -7.0942  -5.4502  -3.8156  -3.1229  -0.9543  -0.3216
     0.5494   1.4022   1.8325   2.4132   2.4192   3.6849   4.3670   4.8944
     5.0608   5.4710   5.8863   6.5738   7.0241   7.5031   7.8495   8.0206
     8.7915   9.3607   9.8997  10.3948  10.9714  11.0832  11.7697  12.5880
    13.0348  13.7276  14.3850  14.6985  14.9798  15.0744  15.8462  16.0206

          k = 0.0000 0.1984 0.0000 (  8048 PWs)   bands (ev):

   -10.2358  -9.0572  -7.1378  -5.4505  -3.8839  -3.1174  -1.0370  -0.3145
     0.4876   1.4809   1.9003   2.4384   2.5303   3.6622   4.2811   4.9249
     5.1031   5.4729   5.9329   6.6423   6.9779   7.5295   7.8279   8.0215
     8.8006   9.3509   9.9122  10.3943  10.9161  10.9959  11.7743  12.5349
    13.0096  13.6941  14.5026  14.6582  15.0632  15.0839  15.8920  15.9626

          k = 0.0000 0.2078 0.0000 (  8040 PWs)   bands (ev):

   -10.2242  -9.0222  -7.1833  -5.4514  -3.9483  -3.1091  -1.1201  -0.3075
     0.4252   1.5519   1.9799   2.4646   2.6428   3.6383   4.1936   4.9429
     5.1550   5.4744   5.9688   6.7159   6.9332   7.5558   7.8053   8.0211
     8.8160   9.3433   9.9221  10.3934  10.8639  10.9099  11.7837  12.4831
    12.9875  13.6546  14.6081  14.6178  15.1007  15.1509  15.8687  15.9721

          k = 0.0000 0.2173 0.0000 (  8054 PWs)   bands (ev):

   -10.2125  -8.9857  -7.2306  -5.4529  -4.0088  -3.0979  -1.2033  -0.3005
     0.3632   1.6160   2.0691   2.4918   2.7563   3.6134   4.1055   4.9530
     5.2105   5.4757   5.9938   6.7934   6.8902   7.5813   7.7848   8.0176
     8.8378   9.3380   9.9297  10.3914  10.8150  10.8254  11.7975  12.4329
    12.9685  13.6097  14.5497  14.7297  15.1242  15.2433  15.8002  16.0240

          k = 0.0000 0.2267 0.0000 (  8058 PWs)   bands (ev):

   -10.2010  -8.9478  -7.2796  -5.4552  -4.0653  -3.0836  -1.2863  -0.2937
     0.3025   1.6750   2.1648   2.5199   2.8704   3.5874   4.0177   4.9582
     5.2653   5.4767   6.0087   6.8492   6.8739   7.6047   7.7683   8.0110
     8.8657   9.3352   9.9357  10.3877  10.7424  10.7697  11.8150  12.3846
    12.9527  13.5608  14.4846  14.8373  15.1531  15.3410  15.7243  16.0776

          k = 0.0000 0.2362 0.0000 (  8056 PWs)   bands (ev):

   -10.1895  -8.9084  -7.3300  -5.4583  -4.1175  -3.0664  -1.3689  -0.2869
     0.2436   1.7310   2.2643   2.5488   2.9844   3.5603   3.9308   4.9602
     5.3165   5.4774   6.0146   6.8103   6.9562   7.6240   7.7578   8.0024
     8.8987   9.3350   9.9407  10.3815  10.6612  10.7282  11.8352  12.3382
    12.9399  13.5089  14.4142  14.9403  15.1859  15.4437  15.6429  16.0297

          k = 0.0000 0.2456 0.0000 (  8068 PWs)   bands (ev):

   -10.1783  -8.8677  -7.3818  -5.4621  -4.1654  -3.0463  -1.4508  -0.2804
     0.1869   1.7854   2.3653   2.5786   3.0973   3.5323   3.8458   4.9596
     5.3619   5.4778   6.0131   6.7736   7.0389   7.6362   7.7558   7.9933
     8.9358   9.3375   9.9454  10.3725  10.5818  10.6907  11.8574  12.2940
    12.9301  13.4552  14.3400  15.0387  15.2194  15.5509  15.5576  15.9388

          k = 0.0000 0.2551 0.0000 (  8066 PWs)   bands (ev):

   -10.1674  -8.8255  -7.4347  -5.4667  -4.2091  -3.0232  -1.5319  -0.2740
     0.1329   1.8393   2.4658   2.6092   3.2074   3.5033   3.7647   4.9568
     5.3993   5.4779   6.0066   6.7392   7.1211   7.6389   7.7633   7.9854
     8.9758   9.3427   9.9504  10.3605  10.5042  10.6574  11.8803  12.2521
    12.9230  13.4009  14.2639  15.1328  15.2442  15.4778  15.6616  15.8651

          k = 0.0000 0.2645 0.0000 (  8074 PWs)   bands (ev):

   -10.1568  -8.7821  -7.4888  -5.4720  -4.2485  -2.9973  -1.6119  -0.2680
     0.0818   1.8936   2.5644   2.6405   3.3098   3.4734   3.6922   4.9520
     5.4261   5.4777   5.9981   6.7073   7.2016   7.6329   7.7784   7.9800
     9.0176   9.3507   9.9562  10.3457  10.4287  10.6282  11.9030  12.2127
    12.9184  13.3469  14.1879  15.2232  15.2325  15.4331  15.7743  15.8070

          k = 0.0000 0.2739 0.0000 (  8074 PWs)   bands (ev):

   -10.1467  -8.7373  -7.5437  -5.4779  -4.2837  -2.9685  -1.6908  -0.2622
     0.0338   1.9486   2.6599   2.6724   3.3874   3.4427   3.6454   4.9455
     5.4396   5.4772   5.9910   6.6779   7.2792   7.6210   7.7976   7.9781
     9.0600   9.3616   9.9632  10.3284  10.3554  10.6029  11.9245  12.1760
    12.9159  13.2942  14.1139  15.1647  15.3108  15.4456  15.7616  15.8875

          k = 0.0000 0.2834 0.0000 (  8072 PWs)   bands (ev):

   -10.1372  -8.6913  -7.5993  -5.4843  -4.3149  -2.9369  -1.7682  -0.2568
    -0.0107   2.0047   2.7050   2.7509   3.4005   3.4112   3.6642   4.9373
     5.4373   5.4765   5.9885   6.6511   7.3523   7.6060   7.8186   7.9797
     9.1020   9.3753   9.9717  10.2842  10.3093  10.5811  11.9437  12.1420
    12.9150  13.2437  14.0441  15.0707  15.3962  15.4875  15.7265  15.9994

          k = 0.0000 0.2928 0.0000 (  8084 PWs)   bands (ev):

   -10.1283  -8.6442  -7.6556  -5.4910  -4.3422  -2.9027  -1.8442  -0.2518
    -0.0517   2.0620   2.7381   2.8360   3.3539   3.3791   3.7442   4.9277
     5.4182   5.4756   5.9924   6.6269   7.4179   7.5918   7.8397   7.9841
     9.1429   9.3918   9.9818  10.2155  10.2891  10.5622  11.9599  12.1110
    12.9151  13.1961  13.9806  14.9706  15.4801  15.5403  15.6994  16.1082

          k = 0.0000 0.3023 0.0000 (  8076 PWs)   bands (ev):

   -10.1201  -8.5958  -7.7123  -5.4978  -4.3657  -2.8659  -1.9184  -0.2472
    -0.0888   2.1207   2.7717   2.9133   3.2885   3.3463   3.8453   4.9170
     5.3828   5.4746   6.0027   6.6052   7.4673   7.5879   7.8602   7.9904
     9.1816   9.4111   9.9935  10.1491  10.2686  10.5459  11.9728  12.0829
    12.9156  13.1519  13.9254  14.8712  15.5630  15.5982  15.6789  16.2121

          k = 0.0000 0.3117 0.0000 (  8068 PWs)   bands (ev):

   -10.1127  -8.5465  -7.7693  -5.5045  -4.3858  -2.8267  -1.9908  -0.2431
    -0.1219   2.1808   2.8056   2.9781   3.2232   3.3131   3.9525   4.9055
     5.3336   5.4735   6.0178   6.5862   7.4846   7.6107   7.8794   7.9972
     9.2175   9.4332  10.0065  10.0855  10.2484  10.5318  11.9820  12.0579
    12.9161  13.1116  13.8800  14.7757  15.6453  15.6541  15.6684  16.3091

          k = 0.0000 0.3212 0.0000 (  8060 PWs)   bands (ev):

   -10.1061  -8.4961  -7.8264  -5.5109  -4.4026  -2.7851  -2.0611  -0.2394
    -0.1510   2.2424   2.8398   3.0154   3.1763   3.2794   4.0610   4.8934
     5.2731   5.4724   6.0357   6.5698   7.4763   7.6546   7.8965   8.0037
     9.2500   9.4579  10.0205  10.0246  10.2290  10.5197  11.9877  12.0360
    12.9162  13.0754  13.8453  14.6860  15.6504  15.7235  15.7273  16.3964

          k = 0.0000 0.3306 0.0000 (  8062 PWs)   bands (ev):

   -10.1004  -8.4449  -7.8835  -5.5167  -4.4164  -2.7416  -2.1290  -0.2363
    -0.1758   2.3053   2.8740   2.9965   3.1773   3.2456   4.1689   4.8810
     5.2043   5.4714   6.0543   6.5560   7.4600   7.7024   7.9109   8.0090
     9.2785   9.4849   9.9669  10.0351  10.2110  10.5093  11.9906  12.0174
    12.9160  13.0433  13.8216  14.6039  15.6424  15.7870  15.8091  16.3858

          k = 0.0000 0.3401 0.0000 (  8070 PWs)   bands (ev):

   -10.0957  -8.3929  -7.9403  -5.5218  -4.4274  -2.6965  -2.1941  -0.2337
    -0.1962   2.3695   2.9081   2.9390   3.2086   3.2120   4.2750   4.8682
     5.1303   5.4704   6.0718   6.5447   7.4431   7.7475   7.9216   8.0129
     9.3025   9.5138   9.9127  10.0495  10.1945  10.5008  11.9911  12.0022
    12.9159  13.0152  13.8079  14.5312  15.6368  15.8509  15.8911  16.3552

          k = 0.0000 0.3495 0.0000 (  8076 PWs)   bands (ev):

   -10.0920  -8.3406  -7.9965  -5.5259  -4.4357  -2.6508  -2.2554  -0.2316
    -0.2122   2.4346   2.8712   2.9415   3.1788   3.2417   4.3777   4.8540
     5.0551   5.4696   6.0868   6.5360   7.4282   7.7872   7.9278   8.0155
     9.3217   9.5439   9.8631  10.0631  10.1799  10.4940  11.9896  11.9909
    12.9167  12.9913  13.8023  14.4703  15.6330  15.9136  15.9731  16.3156

          k = 0.0000 0.3590 0.0000 (  8062 PWs)   bands (ev):

   -10.0893  -8.2884  -8.0514  -5.5290  -4.4415  -2.6065  -2.3108  -0.2302
    -0.2237   2.4996   2.8022   2.9731   3.1474   3.2677   4.4740   4.8349
     4.9865   5.4690   6.0983   6.5297   7.4167   7.8197   7.9292   8.0171
     9.3356   9.5731   9.8198  10.0749  10.1678  10.4891  11.9816  11.9891
    12.9189  12.9717  13.8020  14.4236  15.6306  15.9727  16.0551  16.2715

          k = 0.0000 0.3684 0.0000 (  8054 PWs)   bands (ev):

   -10.0877  -8.2391  -8.1024  -5.5309  -4.4449  -2.5692  -2.3548  -0.2307
    -0.2292   2.5612   2.7378   2.9995   3.1211   3.2841   4.5557   4.8051
     4.9393   5.4686   6.1055   6.5260   7.4095   7.8426   7.9271   8.0181
     9.3441   9.5971   9.7873  10.0835  10.1592  10.4861  11.9764  11.9880
    12.9224  12.9574  13.8036  14.3939  15.6293  16.0221  16.1368  16.2304

          k = 0.0000 0.3779 0.0000 (  8048 PWs)   bands (ev):

   -10.0872  -8.2103  -8.1317  -5.5316  -4.4460  -2.5527  -2.3735  -0.2329
    -0.2289   2.5967   2.7013   3.0115   3.1092   3.2896   4.5944   4.7833
     4.9239   5.4685   6.1079   6.5248   7.4070   7.8513   7.9254   8.0184
     9.3470   9.6073   9.7744  10.0868  10.1559  10.4851  11.9747  11.9876
    12.9246  12.9514  13.8045  14.3837  15.6289  16.0443  16.2055  16.2108

     Writing all to output data dir /home/kravt/QE/qe-7.4.1/BP/Bulk/D = 0/tmp/bulk_bp.save/ :
     XML data file, pseudopotentials, collected wavefunctions

     init_run     :     11.63s CPU      4.06s WALL (       1 calls)
     electrons    :   2314.28s CPU    402.72s WALL (       1 calls)

     Called by init_run:
     wfcinit      :      9.52s CPU      1.62s WALL (       1 calls)
     wfcinit:atom :      0.86s CPU      0.19s WALL (      81 calls)
     wfcinit:wfcr :     47.98s CPU      8.80s WALL (      81 calls)
     potinit      :      1.01s CPU      1.11s WALL (       1 calls)
     hinit0       :      0.68s CPU      0.71s WALL (       1 calls)

     Called by electrons:
     c_bands      :   2314.27s CPU    402.72s WALL (       1 calls)
     v_of_rho     :      0.07s CPU      0.11s WALL (       1 calls)
     v_h          :      0.01s CPU      0.01s WALL (       1 calls)
     v_xc         :      0.06s CPU      0.10s WALL (       1 calls)
     newd         :      0.37s CPU      0.55s WALL (       1 calls)
     PAW_pot      :      0.67s CPU      0.71s WALL (       1 calls)

     Called by c_bands:
     init_us_2    :      5.68s CPU      1.19s WALL (     162 calls)
     cegterg      :   2215.52s CPU    383.63s WALL (     366 calls)

     Called by sum_band:

     Called by *egterg:
     cdiaghg      :     94.30s CPU     17.17s WALL (    6802 calls)
     cegterg:over :    131.98s CPU     14.70s WALL (    6721 calls)
     cegterg:upda :     63.33s CPU      8.33s WALL (    6721 calls)
     cegterg:last :    144.08s CPU     12.56s WALL (    2848 calls)
     h_psi        :   1572.25s CPU    299.63s WALL (    7168 calls)
     s_psi        :     78.60s CPU      8.53s WALL (    7249 calls)
     g_psi        :     63.50s CPU     10.15s WALL (    6721 calls)

     Called by h_psi:
     h_psi:calbec :    101.91s CPU     15.41s WALL (    7168 calls)
     vloc_psi     :   1274.71s CPU    257.19s WALL (    7168 calls)
     add_vuspsi   :     79.04s CPU      9.25s WALL (    7168 calls)
     vhpsi        :    103.44s CPU     15.64s WALL (    7168 calls)

     General routines
     calbec       :    151.33s CPU     21.30s WALL (   14417 calls)
     fft          :      0.54s CPU      0.56s WALL (      13 calls)
     ffts         :      0.26s CPU      0.26s WALL (       1 calls)
     fftw         :    958.32s CPU    195.12s WALL (  239264 calls)
     interpolate  :      0.26s CPU      0.26s WALL (       1 calls)
     davcio       :      4.77s CPU      1.09s WALL (     324 calls)

     Parallel routines

     Hubbard U routines
     vhpsi        :    103.44s CPU     15.64s WALL (    7168 calls)

     PAW routines
     PAW_pot      :      0.67s CPU      0.71s WALL (       1 calls)

     PWSCF        :  38m46.62s CPU   6m47.48s WALL


   This run was terminated on:  10:58:51   7Oct2025            

=------------------------------------------------------------------------------=
   JOB DONE.
=------------------------------------------------------------------------------=
